<?xml version="1.0"?>
<VTKFile type="UnstructuredGrid"  version="0.1"  >
<UnstructuredGrid>
<Piece  NumberOfPoints="961" NumberOfCells="1800">
<Points>
<DataArray  type="Float64"  NumberOfComponents="3"  format="ascii">-2 -2 0  -1.866666666666667 -2 0  -1.733333333333333 -2 0  -1.6 -2 0  -1.466666666666667 -2 0  -1.333333333333333 -2 0  -1.2 -2 0  -1.066666666666667 -2 0  -0.9333333333333333 -2 0  -0.8 -2 0  -0.6666666666666667 -2 0  -0.5333333333333334 -2 0  -0.3999999999999999 -2 0  -0.2666666666666666 -2 0  -0.1333333333333333 -2 0  0 -2 0  0.1333333333333333 -2 0  0.2666666666666666 -2 0  0.3999999999999999 -2 0  0.5333333333333332 -2 0  0.6666666666666665 -2 0  0.7999999999999998 -2 0  0.9333333333333331 -2 0  1.066666666666667 -2 0  1.2 -2 0  1.333333333333333 -2 0  1.466666666666667 -2 0  1.6 -2 0  1.733333333333333 -2 0  1.866666666666667 -2 0  2 -2 0  -2 -1.866666666666667 0  -1.866666666666667 -1.866666666666667 0  -1.733333333333333 -1.866666666666667 0  -1.6 -1.866666666666667 0  -1.466666666666667 -1.866666666666667 0  -1.333333333333333 -1.866666666666667 0  -1.2 -1.866666666666667 0  -1.066666666666667 -1.866666666666667 0  -0.9333333333333333 -1.866666666666667 0  -0.8 -1.866666666666667 0  -0.6666666666666667 -1.866666666666667 0  -0.5333333333333334 -1.866666666666667 0  -0.3999999999999999 -1.866666666666667 0  -0.2666666666666666 -1.866666666666667 0  -0.1333333333333333 -1.866666666666667 0  0 -1.866666666666667 0  0.1333333333333333 -1.866666666666667 0  0.2666666666666666 -1.866666666666667 0  0.3999999999999999 -1.866666666666667 0  0.5333333333333332 -1.866666666666667 0  0.6666666666666665 -1.866666666666667 0  0.7999999999999998 -1.866666666666667 0  0.9333333333333331 -1.866666666666667 0  1.066666666666667 -1.866666666666667 0  1.2 -1.866666666666667 0  1.333333333333333 -1.866666666666667 0  1.466666666666667 -1.866666666666667 0  1.6 -1.866666666666667 0  1.733333333333333 -1.866666666666667 0  1.866666666666667 -1.866666666666667 0  2 -1.866666666666667 0  -2 -1.733333333333333 0  -1.866666666666667 -1.733333333333333 0  -1.733333333333333 -1.733333333333333 0  -1.6 -1.733333333333333 0  -1.466666666666667 -1.733333333333333 0  -1.333333333333333 -1.733333333333333 0  -1.2 -1.733333333333333 0  -1.066666666666667 -1.733333333333333 0  -0.9333333333333333 -1.733333333333333 0  -0.8 -1.733333333333333 0  -0.6666666666666667 -1.733333333333333 0  -0.5333333333333334 -1.733333333333333 0  -0.3999999999999999 -1.733333333333333 0  -0.2666666666666666 -1.733333333333333 0  -0.1333333333333333 -1.733333333333333 0  0 -1.733333333333333 0  0.1333333333333333 -1.733333333333333 0  0.2666666666666666 -1.733333333333333 0  0.3999999999999999 -1.733333333333333 0  0.5333333333333332 -1.733333333333333 0  0.6666666666666665 -1.733333333333333 0  0.7999999999999998 -1.733333333333333 0  0.9333333333333331 -1.733333333333333 0  1.066666666666667 -1.733333333333333 0  1.2 -1.733333333333333 0  1.333333333333333 -1.733333333333333 0  1.466666666666667 -1.733333333333333 0  1.6 -1.733333333333333 0  1.733333333333333 -1.733333333333333 0  1.866666666666667 -1.733333333333333 0  2 -1.733333333333333 0  -2 -1.6 0  -1.866666666666667 -1.6 0  -1.733333333333333 -1.6 0  -1.6 -1.6 0  -1.466666666666667 -1.6 0  -1.333333333333333 -1.6 0  -1.2 -1.6 0  -1.066666666666667 -1.6 0  -0.9333333333333333 -1.6 0  -0.8 -1.6 0  -0.6666666666666667 -1.6 0  -0.5333333333333334 -1.6 0  -0.3999999999999999 -1.6 0  -0.2666666666666666 -1.6 0  -0.1333333333333333 -1.6 0  0 -1.6 0  0.1333333333333333 -1.6 0  0.2666666666666666 -1.6 0  0.3999999999999999 -1.6 0  0.5333333333333332 -1.6 0  0.6666666666666665 -1.6 0  0.7999999999999998 -1.6 0  0.9333333333333331 -1.6 0  1.066666666666667 -1.6 0  1.2 -1.6 0  1.333333333333333 -1.6 0  1.466666666666667 -1.6 0  1.6 -1.6 0  1.733333333333333 -1.6 0  1.866666666666667 -1.6 0  2 -1.6 0  -2 -1.466666666666667 0  -1.866666666666667 -1.466666666666667 0  -1.733333333333333 -1.466666666666667 0  -1.6 -1.466666666666667 0  -1.466666666666667 -1.466666666666667 0  -1.333333333333333 -1.466666666666667 0  -1.2 -1.466666666666667 0  -1.066666666666667 -1.466666666666667 0  -0.9333333333333333 -1.466666666666667 0  -0.8 -1.466666666666667 0  -0.6666666666666667 -1.466666666666667 0  -0.5333333333333334 -1.466666666666667 0  -0.3999999999999999 -1.466666666666667 0  -0.2666666666666666 -1.466666666666667 0  -0.1333333333333333 -1.466666666666667 0  0 -1.466666666666667 0  0.1333333333333333 -1.466666666666667 0  0.2666666666666666 -1.466666666666667 0  0.3999999999999999 -1.466666666666667 0  0.5333333333333332 -1.466666666666667 0  0.6666666666666665 -1.466666666666667 0  0.7999999999999998 -1.466666666666667 0  0.9333333333333331 -1.466666666666667 0  1.066666666666667 -1.466666666666667 0  1.2 -1.466666666666667 0  1.333333333333333 -1.466666666666667 0  1.466666666666667 -1.466666666666667 0  1.6 -1.466666666666667 0  1.733333333333333 -1.466666666666667 0  1.866666666666667 -1.466666666666667 0  2 -1.466666666666667 0  -2 -1.333333333333333 0  -1.866666666666667 -1.333333333333333 0  -1.733333333333333 -1.333333333333333 0  -1.6 -1.333333333333333 0  -1.466666666666667 -1.333333333333333 0  -1.333333333333333 -1.333333333333333 0  -1.2 -1.333333333333333 0  -1.066666666666667 -1.333333333333333 0  -0.9333333333333333 -1.333333333333333 0  -0.8 -1.333333333333333 0  -0.6666666666666667 -1.333333333333333 0  -0.5333333333333334 -1.333333333333333 0  -0.3999999999999999 -1.333333333333333 0  -0.2666666666666666 -1.333333333333333 0  -0.1333333333333333 -1.333333333333333 0  0 -1.333333333333333 0  0.1333333333333333 -1.333333333333333 0  0.2666666666666666 -1.333333333333333 0  0.3999999999999999 -1.333333333333333 0  0.5333333333333332 -1.333333333333333 0  0.6666666666666665 -1.333333333333333 0  0.7999999999999998 -1.333333333333333 0  0.9333333333333331 -1.333333333333333 0  1.066666666666667 -1.333333333333333 0  1.2 -1.333333333333333 0  1.333333333333333 -1.333333333333333 0  1.466666666666667 -1.333333333333333 0  1.6 -1.333333333333333 0  1.733333333333333 -1.333333333333333 0  1.866666666666667 -1.333333333333333 0  2 -1.333333333333333 0  -2 -1.2 0  -1.866666666666667 -1.2 0  -1.733333333333333 -1.2 0  -1.6 -1.2 0  -1.466666666666667 -1.2 0  -1.333333333333333 -1.2 0  -1.2 -1.2 0  -1.066666666666667 -1.2 0  -0.9333333333333333 -1.2 0  -0.8 -1.2 0  -0.6666666666666667 -1.2 0  -0.5333333333333334 -1.2 0  -0.3999999999999999 -1.2 0  -0.2666666666666666 -1.2 0  -0.1333333333333333 -1.2 0  0 -1.2 0  0.1333333333333333 -1.2 0  0.2666666666666666 -1.2 0  0.3999999999999999 -1.2 0  0.5333333333333332 -1.2 0  0.6666666666666665 -1.2 0  0.7999999999999998 -1.2 0  0.9333333333333331 -1.2 0  1.066666666666667 -1.2 0  1.2 -1.2 0  1.333333333333333 -1.2 0  1.466666666666667 -1.2 0  1.6 -1.2 0  1.733333333333333 -1.2 0  1.866666666666667 -1.2 0  2 -1.2 0  -2 -1.066666666666667 0  -1.866666666666667 -1.066666666666667 0  -1.733333333333333 -1.066666666666667 0  -1.6 -1.066666666666667 0  -1.466666666666667 -1.066666666666667 0  -1.333333333333333 -1.066666666666667 0  -1.2 -1.066666666666667 0  -1.066666666666667 -1.066666666666667 0  -0.9333333333333333 -1.066666666666667 0  -0.8 -1.066666666666667 0  -0.6666666666666667 -1.066666666666667 0  -0.5333333333333334 -1.066666666666667 0  -0.3999999999999999 -1.066666666666667 0  -0.2666666666666666 -1.066666666666667 0  -0.1333333333333333 -1.066666666666667 0  0 -1.066666666666667 0  0.1333333333333333 -1.066666666666667 0  0.2666666666666666 -1.066666666666667 0  0.3999999999999999 -1.066666666666667 0  0.5333333333333332 -1.066666666666667 0  0.6666666666666665 -1.066666666666667 0  0.7999999999999998 -1.066666666666667 0  0.9333333333333331 -1.066666666666667 0  1.066666666666667 -1.066666666666667 0  1.2 -1.066666666666667 0  1.333333333333333 -1.066666666666667 0  1.466666666666667 -1.066666666666667 0  1.6 -1.066666666666667 0  1.733333333333333 -1.066666666666667 0  1.866666666666667 -1.066666666666667 0  2 -1.066666666666667 0  -2 -0.9333333333333333 0  -1.866666666666667 -0.9333333333333333 0  -1.733333333333333 -0.9333333333333333 0  -1.6 -0.9333333333333333 0  -1.466666666666667 -0.9333333333333333 0  -1.333333333333333 -0.9333333333333333 0  -1.2 -0.9333333333333333 0  -1.066666666666667 -0.9333333333333333 0  -0.9333333333333333 -0.9333333333333333 0  -0.8 -0.9333333333333333 0  -0.6666666666666667 -0.9333333333333333 0  -0.5333333333333334 -0.9333333333333333 0  -0.3999999999999999 -0.9333333333333333 0  -0.2666666666666666 -0.9333333333333333 0  -0.1333333333333333 -0.9333333333333333 0  0 -0.9333333333333333 0  0.1333333333333333 -0.9333333333333333 0  0.2666666666666666 -0.9333333333333333 0  0.3999999999999999 -0.9333333333333333 0  0.5333333333333332 -0.9333333333333333 0  0.6666666666666665 -0.9333333333333333 0  0.7999999999999998 -0.9333333333333333 0  0.9333333333333331 -0.9333333333333333 0  1.066666666666667 -0.9333333333333333 0  1.2 -0.9333333333333333 0  1.333333333333333 -0.9333333333333333 0  1.466666666666667 -0.9333333333333333 0  1.6 -0.9333333333333333 0  1.733333333333333 -0.9333333333333333 0  1.866666666666667 -0.9333333333333333 0  2 -0.9333333333333333 0  -2 -0.8 0  -1.866666666666667 -0.8 0  -1.733333333333333 -0.8 0  -1.6 -0.8 0  -1.466666666666667 -0.8 0  -1.333333333333333 -0.8 0  -1.2 -0.8 0  -1.066666666666667 -0.8 0  -0.9333333333333333 -0.8 0  -0.8 -0.8 0  -0.6666666666666667 -0.8 0  -0.5333333333333334 -0.8 0  -0.3999999999999999 -0.8 0  -0.2666666666666666 -0.8 0  -0.1333333333333333 -0.8 0  0 -0.8 0  0.1333333333333333 -0.8 0  0.2666666666666666 -0.8 0  0.3999999999999999 -0.8 0  0.5333333333333332 -0.8 0  0.6666666666666665 -0.8 0  0.7999999999999998 -0.8 0  0.9333333333333331 -0.8 0  1.066666666666667 -0.8 0  1.2 -0.8 0  1.333333333333333 -0.8 0  1.466666666666667 -0.8 0  1.6 -0.8 0  1.733333333333333 -0.8 0  1.866666666666667 -0.8 0  2 -0.8 0  -2 -0.6666666666666667 0  -1.866666666666667 -0.
[...]
<PointData  Scalars="f_12"> 
<DataArray  type="Float64"  Name="f_12"  format="ascii">0.0000000000000000e+00  0.0000000000000000e+00  0.0000000000000000e+00  0.0000000000000000e+00  0.0000000000000000e+00  0.0000000000000000e+00  0.0000000000000000e+00  0.0000000000000000e+00  0.0000000000000000e+00  0.0000000000000000e+00  0.0000000000000000e+00  0.0000000000000000e+00  0.0000000000000000e+00  0.0000000000000000e+00  0.0000000000000000e+00  0.0000000000000000e+00  0.0000000000000000e+00  0.0000000000000000e+00  0.0000000000000000e+00  0.0000000000000000e+00  0.0000000000000000e+00  0.0000000000000000e+00  0.0000000000000000e+00  0.0000000000000000e+00  0.0000000000000000e+00  0.0000000000000000e+00  0.0000000000000000e+00  0.0000000000000000e+00  0.0000000000000000e+00  0.0000000000000000e+00  0.0000000000000000e+00  0.0000000000000000e+00  1.6186043080572806e-04  3.3894195730794162e-04  5.4291364091826140e-04  7.8461887664693587e-04  1.0727269723960200e-03  1.4122638424668300e-03  1.8030186199903446e-03  2.2380592512435157e-03  2.7027488864823715e-03  3.1747197584883918e-03  3.6251847019948360e-03  4.0217224682084322e-03  4.3322941515804275e-03  4.5298389982762763e-03  4.5965098032394588e-03  4.5265765179168709e-03  4.3273004917870053e-03  4.0175862264300024e-03  3.6247791664811777e-03  3.1804022291519502e-03  2.7157814631529834e-03  2.2583872581873111e-03  1.8293994234503054e-03  1.4426277825315109e-03  1.1046060421925504e-03  8.1549330530184655e-04  5.7037204803258960e-04  3.6058689856128130e-04  1.7486415017071286e-04  0.0000000000000000e+00  0.0000000000000000e+00  3.3894195730794173e-04  7.0884871716249507e-04  1.1354875500733178e-03  1.6423302782746711e-03  2.2481615299943811e-03  2.9640736474850606e-03  3.7900624523149076e-03  4.7117814316054033e-03  5.6983231907253981e-03  6.7020422951009004e-03  7.6612794832057966e-03  8.5063216733876814e-03  9.1680975462853035e-03  9.5881931327958577e-03  9.7281160282486658e-03  9.5756518170138430e-03  9.1467594922088474e-03  8.4825786941473240e-03  7.6423770429771450e-03  6.6942080518615802e-03  5.7053882952461830e-03  4.7346080388593016e-03  3.8267672512732188e-03  3.0107885046545416e-03  2.2999711351522267e-03  1.6940630927418593e-03  1.1821483313931263e-03  7.4559669570670270e-04  3.6058689856128146e-04  0.0000000000000000e+00  0.0000000000000000e+00  5.4291364091826129e-04  1.1354875500733175e-03  1.8209553662794943e-03  2.6386742997433861e-03  3.6204478684307160e-03  4.7856373363661811e-03  6.1354387748401365e-03  7.6472749190623756e-03  9.2707942569702773e-03  1.0927253380937351e-02  1.2513834111268215e-02  1.3913564793375554e-02  1.5010062750245261e-02  1.5704685256142090e-02  1.5932480989850780e-02  1.5673147569934143e-02  1.4954252405408075e-02  1.3845972492401090e-02  1.2448838924192943e-02  1.0877627942578974e-02  9.2451012936448761e-03  7.6487293959290378e-03  6.1622200478790206e-03  4.8321896232189476e-03  3.6791332480883951e-03  2.7012177827622002e-03  1.8793343728813780e-03  1.1821483313931272e-03  5.7037204803259015e-04  0.0000000000000000e+00  0.0000000000000000e+00  7.8461887664693576e-04  1.6423302782746711e-03  2.6386742997433869e-03  3.8336810658694308e-03  5.2765765915144432e-03  6.9984562562102467e-03  9.0034424175926449e-03  1.1259758389052306e-02  1.3693050798106735e-02  1.6184816884505911e-02  1.8578523431664357e-02  2.0694657630326931e-02  2.2353625838770874e-02  2.3402733920373869e-02  2.3741459387836429e-02  2.3338848614530130e-02  2.2238559339053426e-02  2.0550347753249834e-02  1.8430464564294653e-02  1.6056112891930086e-02  1.3599967404005705e-02  1.1209732071593322e-02  8.9955101549586448e-03  7.0253360976749116e-03  5.3273586201240978e-03  3.8962313927764450e-03  2.7012177827622020e-03  1.6940630927418613e-03  8.1549330530184753e-04  0.0000000000000000e+00  0.0000000000000000e+00  1.0727269723960194e-03  2.2481615299943807e-03  3.6204478684307151e-03  5.2765765915144423e-03  7.2891093860688620e-03  9.7056994071834050e-03  1.2536048994280536e-02  1.5738336004134025e-02  1.9208566100107988e-02  2.2777229724511135e-02  2.6217383809479938e-02  2.9266336393654335e-02  3.1659564956339113e-02  3.3171273389875147e-02  3.3652705099391465e-02  3.3058609291633796e-02  3.1454836682979340e-02  2.9005193848579060e-02  2.5941462300542773e-02  2.2524675677687209e-02  1.9006964467085087e-02  1.5601530594199511e-02  1.2464765936598713e-02  9.6907442524255833e-03  7.3155184404412226e-03  5.3273586201241022e-03  3.6791332480883999e-03  2.2999711351522297e-03  1.1046060421925515e-03  0.0000000000000000e+00  0.0000000000000000e+00  1.4122638424668280e-03  2.9640736474850576e-03  4.7856373363661777e-03  6.9984562562102432e-03  9.7056994071834015e-03  1.2977742887582817e-02  1.6833608200559243e-02  2.1221052515902224e-02  2.6000234486853166e-02  3.0937416113726097e-02  3.5715018862765027e-02  3.9961677928683832e-02  4.3300726811713243e-02  4.5409119005480454e-02  4.6073630772303496e-02  4.5229881254105452e-02  4.2973495887779177e-02  3.9540560876252372e-02  3.5263328276553388e-02  3.0513453819840067e-02  2.5646740919202680e-02  2.0960507877968812e-02  1.6669181935996372e-02  1.2898013728638755e-02  9.6907442524255850e-03  7.0253360976749142e-03  4.8321896232189528e-03  3.0107885046545442e-03  1.4426277825315122e-03  0.0000000000000000e+00  0.0000000000000000e+00  1.8030186199903431e-03  3.7900624523149037e-03  6.1354387748401348e-03  9.0034424175926449e-03  1.2536048994280536e-02  1.6833608200559253e-02  2.1929296215255203e-02  2.7760907264793841e-02  3.4146738334631208e-02  4.0774755908314274e-02  4.7214376897468165e-02  5.2956674113455886e-02  5.7481437700494707e-02  6.0340092787197472e-02  6.1235639794175664e-02  6.0078527183494455e-02  5.7002718131583141e-02  5.2337684521927719e-02  4.6545078413122623e-02  4.0138102082503173e-02  3.3603895007518113e-02  2.7344791584251866e-02  2.1646033436816165e-02  1.6669181935996369e-02  1.2464765936598714e-02  8.9955101549586500e-03  6.1622200478790232e-03  3.8267672512732201e-03  1.8293994234503061e-03  0.0000000000000000e+00  0.0000000000000000e+00  2.2380592512435149e-03  4.7117814316054007e-03  7.6472749190623747e-03  1.1259758389052302e-02  1.5738336004134022e-02  2.1221052515902228e-02  2.7760907264793848e-02  3.5287295087666315e-02  4.3571795368740986e-02  5.2210893339893268e-02  6.0638884528266136e-02  6.8179785454704489e-02  7.4137022260083243e-02  7.7906336251500369e-02  7.9085893916570463e-02  7.7553890382172280e-02  7.3491177936016061e-02  6.7342669289119347e-02  5.9729845594144633e-02  5.1339881734680959e-02  4.2819966093617677e-02  3.4698735000197094e-02  2.7344791584251859e-02  2.0960507877968802e-02  1.5601530594199504e-02  1.1209732071593313e-02  7.6487293959290343e-03  4.7346080388592999e-03  2.2583872581873094e-03  0.0000000000000000e+00  0.0000000000000000e+00  2.7027488864823702e-03  5.6983231907253937e-03  9.2707942569702721e-03  1.3693050798106721e-02  1.9208566100107974e-02  2.6000234486853162e-02  3.4146738334631214e-02  4.3571795368740993e-02  5.3997619738029051e-02  6.4919157896761656e-02  7.5617141190571710e-02  8.5222694666186635e-02  9.2833100324314161e-02  9.7660215607885403e-02  9.9176979640584167e-02  9.7221693260943126e-02  9.2029117077410599e-02  8.4179458171180957e-02  7.4481861395708490e-02  6.3827148150238364e-02  5.3048578187423978e-02  4.2819966093617753e-02  3.3603895007518154e-02  2.5646740919202701e-02  1.9006964467085101e-02  1.3599967404005715e-02  9.2451012936448813e-03  5.7053882952461882e-03  2.7157814631529865e-03  0.0000000000000000e+00  0.0000000000000000e+00  3.1747197584883896e-03  6.7020422951008960e-03  1.0927253380937342e-02  1.6184816884505900e-02  2.2777229724511114e-02  3.0937416113726090e-02  4.0774755908314267e-02  5.2210893339893261e-02  6.4919157896761656e-02  7.8288498914946672e-02  9.1435428898951038e-02  1.0328143373587464e-01  1.1269685683696803e-01  1.1868875203821951e-01  1.2058863856529560e-01  1.1818764812993685e-01  1.1177805448023731e-01  1.0208881339673113e-01  9.0136448668499486e-02  7.7036644363659576e-02  6.3827148150238433e-02  5.1339881734681091e-02  4.0138102082503277e-02  3.0513453819840129e-02  2.2524675677687258e-02  1.6056112891930117e-02  1.0877627942578997e-02  6.6942080518615950e-03  3.1804022291519575e-03  0.0000000000000000e+00  0.0000000000000000e+00  3.6251847019948334e-03  7.6612794832057914e-03  1.2513834111268211e-02  1.8578523431664346e-02  2.6217383809479917e-02  3.5715018862765027e-02  4.7214376897468151e-02  6.0638884528266108e-02  7.5617141190571682e-02  9.1435428898951010e-02  1.0704723259574575e-01  1.2116243539036596e-01  1.3241917157263142e-01  1.3961216630659792e-01  1.4192381896550985e-01  1.3909258597802948e-01  1.3146661448594624e-01  1.1992610299028771e-01  1.0570040197684580e-01  9.0136448668499583e-02  7.4481861395708643e-02  5.9729845594144799e-02  4.6545078413122741e-02  3.5263328276553478e-02  2.5941462300542843e-02  1.8430464564294702e-02  1.2448838924192967e-02  7.6423770429771666e-03  3.6247791664811885e-03  0.0000000000000000e+00  0.0000000000000000e+00  4.0217224682084279e-03  8.5063216733876710e-03  1.3913564793375537e-02  2.0694657630326904e-02  2.9266336393654304e-02  3.9961677928683804e-02  5.2956674113455851e-02  6.8179785454704420e-02  8.5222694666186524e-02  1.0328143373587452e-01  1.2116243539036586e-01  1.3738133459685833e-01  1.5035987273405216e-01  1.5869183828526842e-01  1.6141548113229914e-01  1.5821458017417106e-01  1.4948509428811335e-01  1.3624625179076083e-01  1.1992610299028762e-01  1.0208881339673116e-01  8.4179458171181082e-02  6.7342669289119542e-02  5.2337684521927851e-02  3.9540560876252462e-02  2.9005193848579119e-02  2.0550347753249879e-02  1.3845972492401123e-02  8.4825786941473448e-03  4.0175862264300146e-03  0.0000000000000000e+00  0.0000000000000000e+00  4.3322941515804214e-03  9.1680975462852896e-03  1.5010062750245242e-02  2.2353625838770846e-02  3.1659564956339072e-02  4.3300726811713222e-02  5.7481437700494679e-02  7.4137022260083174e-02  9.2833100324314077e-02  1.1269685683696792e-01  1.3241917157263125e-01  1.5035987273405213e-01  1.6476389971023911e-01  1.7405753866764506e-01  1.7715532708207887e-01  1.7368954406750065e-01  1.6408953606002710e-01  1.4948509428811321e-01  1.3146661448594613e-01  1.1177805448023728e-01  9.2029117077410696e-02  7.3491177936016241e-02  5.7002718131583287e-02  4.2973495887779253e-02  3.1454836682979402e-02  2.2238559339053471e-02  1.4954252405408101e-02  9.1467594922088630e-03  4.3273004917870140e-03  0.0000000000000000e+00  0.0000000000000000e+00  4.5298389982762702e-03  9.5881931327958421e-03  1.5704685256142069e-02  2.3402733920373842e-02  3.3171273389875126e-02  4.5409119005480433e-02  6.0340092787197430e-02  7.7906336251500299e-02  9.7660215607885334e-02  1.1868875203821941e-01  1.3961216630659781e-01  1.5869183828526842e-01  1.7405753866764506e-01  1.8402264044874597e-01  1.8741400504257749e-01  1.8382179884417774e-01  1.7368954406750059e-01  1.5821458017417095e-01  1.3909258597802937e-01  1.1818764812993680e-01  9.7221693260943168e-02  7.7553890382172447e-02  6.0078527183494573e-02  4.5229881254105514e-02  3.3058609291633824e-02  2.3338848614530158e-02  1.5673147569934164e-02  9.5756518170138569e-03  4.5265765179168778e-03  0.0000000000000000e+00  0.0000000000000000e+00  4.5965098032394527e-03  9.7281160282486501e-03  1.5932480989850766e-02  2.3741459387836405e-02  3.3652705099391444e-02  4.6073630772303489e-02  6.1235639794175609e-02  7.9085893916570366e-02  9.9176979640584029e-02  1.2058863856529543e-01  1.4192381896550971e-01  1.6141548113229912e-01  1.7715532708207887e-01  1.8741400504257746e-01  1.9097907909877598e-01  1.8741400504257755e-01  1.7715532708207882e-01  1.6141548113229895e-01  1.4192381896550968e-01  1.2058863856529549e-01  9.9176979640584167e-02  7.9085893916570588e-02  6.1235639794175720e-02  4.6073630772303531e-02  3.3652705099391472e-02  2.3741459387836443e-02  1.5932480989850787e-02  9.7281160282486675e-03  4.5965098032394631e-03  0.0000000000000000e+00  0.0000000000000000e+00  4.5265765179168657e-03  9.5756518170138326e-03  1.5673147569934140e-02  2.3338848614530117e-02  3.3058609291633782e-02  4.5229881254105445e-02  6.0078527183494414e-02  7.7553890382172197e-02  9.7221693260942973e-02  1.1818764812993672e-01  1.3909258597802934e-01  1.5821458017417100e-01  1.7368954406750062e-01  1.8382179884417768e-01  1.8741400504257744e-01  1.8402264044874600e-01  1.7405753866764506e-01  1.5869183828526831e-01  1.3961216630659776e-01  1.1868875203821945e-01  9.7660215607885417e-02  7.7906336251500494e-02  6.0340092787197548e-02  4.5409119005480475e-02  3.3171273389875154e-02  2.3402733920373869e-02  1.5704685256142086e-02  9.5881931327958594e-03  4.5298389982762789e-03  0.0000000000000000e+00  0.0000000000000000e+00  4.3273004917870001e-03  9.1467594922088405e-03  1.4954252405408066e-02  2.2238559339053419e-02  3.1454836682979333e-02  4.2973495887779163e-02  5.7002718131583079e-02  7.3491177936015964e-02  9.2029117077410488e-02  1.1177805448023720e-01  1.3146661448594610e-01  1.4948509428811321e-01  1.6408953606002694e-01  1.7368954406750056e-01  1.7715532708207882e-01  1.7405753866764503e-01  1.6476389971023897e-01  1.5035987273405194e-01  1.3241917157263119e-01  1.1269685683696795e-01  9.2833100324314174e-02  7.4137022260083341e-02  5.7481437700494714e-02  4.3300726811713236e-02  3.1659564956339106e-02  2.2353625838770867e-02  1.5010062750245263e-02  9.1680975462853018e-03  4.3322941515804292e-03  0.0000000000000000e+00  0.0000000000000000e+00  4.0175862264299990e-03  8.4825786941473170e-03  1.3845972492401083e-02  2.0550347753249817e-02  2.9005193848579042e-02  3.9540560876252351e-02  5.2337684521927663e-02  6.7342669289119264e-02  8.4179458171180846e-02  1.0208881339673102e-01  1.1992610299028758e-01  1.3624625179076078e-01  1.4948509428811319e-01  1.5821458017417089e-01  1.6141548113229895e-01  1.5869183828526826e-01  1.5035987273405191e-01  1.3738133459685808e-01  1.2116243539036566e-01  1.0328143373587445e-01  8.5222694666186524e-02  6.8179785454704517e-02  5.2956674113455858e-02  3.9961677928683791e-02  2.9266336393654314e-02  2.0694657630326910e-02  1.3913564793375542e-02  8.5063216733876745e-03  4.0217224682084305e-03  0.0000000000000000e+00  0.0000000000000000e+00  3.6247791664811737e-03  7.6423770429771363e-03  1.2448838924192926e-02  1.8430464564294639e-02  2.5941462300542742e-02  3.5263328276553360e-02  4.6545078413122588e-02  5.9729845594144557e-02  7.4481861395708407e-02  9.0136448668499417e-02  1.0570040197684574e-01  1.1992610299028762e-01  1.3146661448594604e-01  1.3909258597802929e-01  1.4192381896550962e-01  1.3961216630659770e-01  1.3241917157263111e-01  1.2116243539036561e-01  1.0704723259574553e-01  9.1435428898950830e-02  7.5617141190571627e-02  6.0638884528266143e-02  4.7214376897468151e-02  3.5715018862765013e-02  2.6217383809479914e-02  1.8578523431664336e-02  1.2513834111268208e-02  7.6612794832057914e-03  3.6251847019948351e-03  0.0000000000000000e+00  0.0000000000000000e+00  3.1804022291519467e-03  6.6942080518615707e-03  1.0877627942578965e-02  1.6056112891930069e-02  2.2524675677687189e-02  3.0513453819840046e-02  4.0138102082503138e-02  5.1339881734680896e-02  6.3827148150238266e-02  7.7036644363659479e-02  9.0136448668499458e-02  1.0208881339673112e-01  1.1177805448023720e-01  1.1818764812993673e-01  1.2058863856529541e-01  1.1868875203821937e-01  1.1269685683696783e-01  1.0328143373587438e-01  9.1435428898950830e-02  7.8288498914946547e-02  6.4919157896761628e-02  5.2210893339893309e-02  4.0774755908314288e-02  3.0937416113726083e-02  2.2777229724511117e-02  1.6184816884505904e-02  1.0927253380937347e-02  6.7020422951009004e-03  3.1747197584883909e-03  0.0000000000000000e+00  0.0000000000000000e+00  2.7157814631529795e-03  5.7053882952461743e-03  9.2451012936448640e-03  1.3599967404005684e-02  1.9006964467085063e-02  2.5646740919202653e-02  3.3603895007518071e-02  4.2819966093617594e-02  5.3048578187423825e-02  6.3827148150238294e-02  7.4481861395708532e-02  8.4179458171180999e-02  9.2029117077410627e-02  9.7221693260943112e-02  9.9176979640584043e-02  9.7660215607885320e-02  9.2833100324314036e-02  8.5222694666186455e-02  7.5617141190571585e-02  6.4919157896761587e-02  5.3997619738029044e-02  4.3571795368741048e-02  3.4146738334631235e-02  2.6000234486853162e-02  1.9208566100107984e-02  1.3693050798106732e-02  9.2707942569702807e-03  5.6983231907254007e-03  2.7027488864823737e-03  0.0000000000000000e+00  0.0000000000000000e+00  2.2583872581873059e-03  4.7346080388592920e-03  7.6487293959290239e-03  1.1209732071593299e-02  1.5601530594199482e-02  2.0960507877968774e-02  2.7344791584251796e-02  3.4698735000196997e-02  4.2819966093617608e-02  5.1339881734680945e-02  5.9729845594144682e-02  6.7342669289119431e-02  7.3491177936016103e-02  7.7553890382172308e-02  7.9085893916570449e-02  7.7906336251500355e-02  7.4137022260083188e-02  6.8179785454704406e-02  6.0638884528266046e-02  5.2210893339893233e-02  4.3571795368741020e-02  3.5287295087666377e-02  2.7760907264793876e-02  2.1221052515902238e-02  1.5738336004134035e-02  1.1259758389052316e-02  7.6472749190623869e-03  4.7117814316054111e-03  2.2380592512435188e-03  0.0000000000000000e+00  0.0000000000000000e+00  1.8293994234503015e-03  3.8267672512732115e-03  6.1622200478790093e-03  8.9955101549586275e-03  1.2464765936598697e-02  1.6669181935996338e-02  2.1646033436816110e-02  2.7344791584251772e-02  3.3603895007518050e-02  4.0138102082503152e-02  4.6545078413122651e-02  5.2337684521927753e-02  5.7002718131583113e-02  6.0078527183494435e-02  6.1235639794175602e-02  6.0340092787197409e-02  5.7481437700494645e-02  5.2956674113455761e-02  4.7214376897468067e-02  4.0774755908314204e-02  3.4146738334631194e-02  2.7760907264793865e-02  2.1929296215255203e-02  1.6833608200559243e-02  1.2536048994280536e-02  9.0034424175926484e-03  6.1354387748401408e-03  3.7900624523149072e-03  1.8030186199903446e-03  0.0000000000000000e+00  0.0000000000000000e+00  1.4426277825315083e-03  3.0107885046545364e-03  4.8321896232189398e-03  7.0253360976748995e-03  9.6907442524255712e-03  1.2898013728638731e-02  1.6669181935996327e-02  2.0960507877968750e-02  2.5646740919202639e-02  3.0513453819840056e-02  3.5263328276553395e-02  3.9540560876252392e-02  4.2973495887779163e-02  4.5229881254105424e-02  4.6073630772303462e-02  4.5409119005480399e-02  4.3300726811713153e-02  3.9961677928683721e-02  3.5715018862764937e-02  3.0937416113726024e-02  2.6000234486853124e-02  2.1221052515902228e-02  1.6833608200559243e-02  1.2977742887582805e-02  9.7056994071834015e-03  6.9984562562102424e-03  4.7856373363661785e-03  2.9640736474850589e-03  1.4122638424668291e-03  0.0000000000000000e+00  0.0000000000000000e+00  1.1046060421925482e-03  2.2999711351522228e-03  3.6791332480883903e-03  5.3273586201240892e-03  7.3155184404412070e-03  9.6907442524255677e-03  1.2464765936598685e-02  1.5601530594199470e-02  1.9006964467085066e-02  2.2524675677687199e-02  2.5941462300542780e-02  2.9005193848579060e-02  3.1454836682979333e-02  3.3058609291633768e-02  3.3652705099391431e-02  3.3171273389875112e-02  3.1659564956339058e-02  2.9266336393654259e-02  2.6217383809479865e-02  2.2777229724511083e-02  1.9208566100107963e-02  1.5738336004134029e-02  1.2536048994280541e-02  9.7056994071834032e-03  7.2891093860688620e-03  5.2765765915144423e-03  3.6204478684307155e-03  2.2481615299943798e-03  1.0727269723960196e-03  0.0000000000000000e+00  0.0000000000000000e+00  8.1549330530184525e-04  1.6940630927418569e-03  2.7012177827621968e-03  3.8962313927764385e-03  5.3273586201240909e-03  7.0253360976749021e-03  8.9955101549586275e-03  1.1209732071593290e-02  1.3599967404005689e-02  1.6056112891930083e-02  1.8430464564294671e-02  2.0550347753249851e-02  2.2238559339053440e-02  2.3338848614530130e-02  2.3741459387836419e-02  2.3402733920373842e-02  2.2353625838770843e-02  2.0694657630326879e-02  1.8578523431664311e-02  1.6184816884505883e-02  1.3693050798106721e-02  1.1259758389052316e-02  9.0034424175926553e