<?xml version="1.0"?>
<VTKFile type="UnstructuredGrid"  version="0.1"  >
<UnstructuredGrid>
<Piece  NumberOfPoints="961" NumberOfCells="1800">
<Points>
<DataArray  type="Float64"  NumberOfComponents="3"  format="ascii">-2 -2 0  -1.866666666666667 -2 0  -1.733333333333333 -2 0  -1.6 -2 0  -1.466666666666667 -2 0  -1.333333333333333 -2 0  -1.2 -2 0  -1.066666666666667 -2 0  -0.9333333333333333 -2 0  -0.8 -2 0  -0.6666666666666667 -2 0  -0.5333333333333334 -2 0  -0.3999999999999999 -2 0  -0.2666666666666666 -2 0  -0.1333333333333333 -2 0  0 -2 0  0.1333333333333333 -2 0  0.2666666666666666 -2 0  0.3999999999999999 -2 0  0.5333333333333332 -2 0  0.6666666666666665 -2 0  0.7999999999999998 -2 0  0.9333333333333331 -2 0  1.066666666666667 -2 0  1.2 -2 0  1.333333333333333 -2 0  1.466666666666667 -2 0  1.6 -2 0  1.733333333333333 -2 0  1.866666666666667 -2 0  2 -2 0  -2 -1.866666666666667 0  -1.866666666666667 -1.866666666666667 0  -1.733333333333333 -1.866666666666667 0  -1.6 -1.866666666666667 0  -1.466666666666667 -1.866666666666667 0  -1.333333333333333 -1.866666666666667 0  -1.2 -1.866666666666667 0  -1.066666666666667 -1.866666666666667 0  -0.9333333333333333 -1.866666666666667 0  -0.8 -1.866666666666667 0  -0.6666666666666667 -1.866666666666667 0  -0.5333333333333334 -1.866666666666667 0  -0.3999999999999999 -1.866666666666667 0  -0.2666666666666666 -1.866666666666667 0  -0.1333333333333333 -1.866666666666667 0  0 -1.866666666666667 0  0.1333333333333333 -1.866666666666667 0  0.2666666666666666 -1.866666666666667 0  0.3999999999999999 -1.866666666666667 0  0.5333333333333332 -1.866666666666667 0  0.6666666666666665 -1.866666666666667 0  0.7999999999999998 -1.866666666666667 0  0.9333333333333331 -1.866666666666667 0  1.066666666666667 -1.866666666666667 0  1.2 -1.866666666666667 0  1.333333333333333 -1.866666666666667 0  1.466666666666667 -1.866666666666667 0  1.6 -1.866666666666667 0  1.733333333333333 -1.866666666666667 0  1.866666666666667 -1.866666666666667 0  2 -1.866666666666667 0  -2 -1.733333333333333 0  -1.866666666666667 -1.733333333333333 0  -1.733333333333333 -1.733333333333333 0  -1.6 -1.733333333333333 0  -1.466666666666667 -1.733333333333333 0  -1.333333333333333 -1.733333333333333 0  -1.2 -1.733333333333333 0  -1.066666666666667 -1.733333333333333 0  -0.9333333333333333 -1.733333333333333 0  -0.8 -1.733333333333333 0  -0.6666666666666667 -1.733333333333333 0  -0.5333333333333334 -1.733333333333333 0  -0.3999999999999999 -1.733333333333333 0  -0.2666666666666666 -1.733333333333333 0  -0.1333333333333333 -1.733333333333333 0  0 -1.733333333333333 0  0.1333333333333333 -1.733333333333333 0  0.2666666666666666 -1.733333333333333 0  0.3999999999999999 -1.733333333333333 0  0.5333333333333332 -1.733333333333333 0  0.6666666666666665 -1.733333333333333 0  0.7999999999999998 -1.733333333333333 0  0.9333333333333331 -1.733333333333333 0  1.066666666666667 -1.733333333333333 0  1.2 -1.733333333333333 0  1.333333333333333 -1.733333333333333 0  1.466666666666667 -1.733333333333333 0  1.6 -1.733333333333333 0  1.733333333333333 -1.733333333333333 0  1.866666666666667 -1.733333333333333 0  2 -1.733333333333333 0  -2 -1.6 0  -1.866666666666667 -1.6 0  -1.733333333333333 -1.6 0  -1.6 -1.6 0  -1.466666666666667 -1.6 0  -1.333333333333333 -1.6 0  -1.2 -1.6 0  -1.066666666666667 -1.6 0  -0.9333333333333333 -1.6 0  -0.8 -1.6 0  -0.6666666666666667 -1.6 0  -0.5333333333333334 -1.6 0  -0.3999999999999999 -1.6 0  -0.2666666666666666 -1.6 0  -0.1333333333333333 -1.6 0  0 -1.6 0  0.1333333333333333 -1.6 0  0.2666666666666666 -1.6 0  0.3999999999999999 -1.6 0  0.5333333333333332 -1.6 0  0.6666666666666665 -1.6 0  0.7999999999999998 -1.6 0  0.9333333333333331 -1.6 0  1.066666666666667 -1.6 0  1.2 -1.6 0  1.333333333333333 -1.6 0  1.466666666666667 -1.6 0  1.6 -1.6 0  1.733333333333333 -1.6 0  1.866666666666667 -1.6 0  2 -1.6 0  -2 -1.466666666666667 0  -1.866666666666667 -1.466666666666667 0  -1.733333333333333 -1.466666666666667 0  -1.6 -1.466666666666667 0  -1.466666666666667 -1.466666666666667 0  -1.333333333333333 -1.466666666666667 0  -1.2 -1.466666666666667 0  -1.066666666666667 -1.466666666666667 0  -0.9333333333333333 -1.466666666666667 0  -0.8 -1.466666666666667 0  -0.6666666666666667 -1.466666666666667 0  -0.5333333333333334 -1.466666666666667 0  -0.3999999999999999 -1.466666666666667 0  -0.2666666666666666 -1.466666666666667 0  -0.1333333333333333 -1.466666666666667 0  0 -1.466666666666667 0  0.1333333333333333 -1.466666666666667 0  0.2666666666666666 -1.466666666666667 0  0.3999999999999999 -1.466666666666667 0  0.5333333333333332 -1.466666666666667 0  0.6666666666666665 -1.466666666666667 0  0.7999999999999998 -1.466666666666667 0  0.9333333333333331 -1.466666666666667 0  1.066666666666667 -1.466666666666667 0  1.2 -1.466666666666667 0  1.333333333333333 -1.466666666666667 0  1.466666666666667 -1.466666666666667 0  1.6 -1.466666666666667 0  1.733333333333333 -1.466666666666667 0  1.866666666666667 -1.466666666666667 0  2 -1.466666666666667 0  -2 -1.333333333333333 0  -1.866666666666667 -1.333333333333333 0  -1.733333333333333 -1.333333333333333 0  -1.6 -1.333333333333333 0  -1.466666666666667 -1.333333333333333 0  -1.333333333333333 -1.333333333333333 0  -1.2 -1.333333333333333 0  -1.066666666666667 -1.333333333333333 0  -0.9333333333333333 -1.333333333333333 0  -0.8 -1.333333333333333 0  -0.6666666666666667 -1.333333333333333 0  -0.5333333333333334 -1.333333333333333 0  -0.3999999999999999 -1.333333333333333 0  -0.2666666666666666 -1.333333333333333 0  -0.1333333333333333 -1.333333333333333 0  0 -1.333333333333333 0  0.1333333333333333 -1.333333333333333 0  0.2666666666666666 -1.333333333333333 0  0.3999999999999999 -1.333333333333333 0  0.5333333333333332 -1.333333333333333 0  0.6666666666666665 -1.333333333333333 0  0.7999999999999998 -1.333333333333333 0  0.9333333333333331 -1.333333333333333 0  1.066666666666667 -1.333333333333333 0  1.2 -1.333333333333333 0  1.333333333333333 -1.333333333333333 0  1.466666666666667 -1.333333333333333 0  1.6 -1.333333333333333 0  1.733333333333333 -1.333333333333333 0  1.866666666666667 -1.333333333333333 0  2 -1.333333333333333 0  -2 -1.2 0  -1.866666666666667 -1.2 0  -1.733333333333333 -1.2 0  -1.6 -1.2 0  -1.466666666666667 -1.2 0  -1.333333333333333 -1.2 0  -1.2 -1.2 0  -1.066666666666667 -1.2 0  -0.9333333333333333 -1.2 0  -0.8 -1.2 0  -0.6666666666666667 -1.2 0  -0.5333333333333334 -1.2 0  -0.3999999999999999 -1.2 0  -0.2666666666666666 -1.2 0  -0.1333333333333333 -1.2 0  0 -1.2 0  0.1333333333333333 -1.2 0  0.2666666666666666 -1.2 0  0.3999999999999999 -1.2 0  0.5333333333333332 -1.2 0  0.6666666666666665 -1.2 0  0.7999999999999998 -1.2 0  0.9333333333333331 -1.2 0  1.066666666666667 -1.2 0  1.2 -1.2 0  1.333333333333333 -1.2 0  1.466666666666667 -1.2 0  1.6 -1.2 0  1.733333333333333 -1.2 0  1.866666666666667 -1.2 0  2 -1.2 0  -2 -1.066666666666667 0  -1.866666666666667 -1.066666666666667 0  -1.733333333333333 -1.066666666666667 0  -1.6 -1.066666666666667 0  -1.466666666666667 -1.066666666666667 0  -1.333333333333333 -1.066666666666667 0  -1.2 -1.066666666666667 0  -1.066666666666667 -1.066666666666667 0  -0.9333333333333333 -1.066666666666667 0  -0.8 -1.066666666666667 0  -0.6666666666666667 -1.066666666666667 0  -0.5333333333333334 -1.066666666666667 0  -0.3999999999999999 -1.066666666666667 0  -0.2666666666666666 -1.066666666666667 0  -0.1333333333333333 -1.066666666666667 0  0 -1.066666666666667 0  0.1333333333333333 -1.066666666666667 0  0.2666666666666666 -1.066666666666667 0  0.3999999999999999 -1.066666666666667 0  0.5333333333333332 -1.066666666666667 0  0.6666666666666665 -1.066666666666667 0  0.7999999999999998 -1.066666666666667 0  0.9333333333333331 -1.066666666666667 0  1.066666666666667 -1.066666666666667 0  1.2 -1.066666666666667 0  1.333333333333333 -1.066666666666667 0  1.466666666666667 -1.066666666666667 0  1.6 -1.066666666666667 0  1.733333333333333 -1.066666666666667 0  1.866666666666667 -1.066666666666667 0  2 -1.066666666666667 0  -2 -0.9333333333333333 0  -1.866666666666667 -0.9333333333333333 0  -1.733333333333333 -0.9333333333333333 0  -1.6 -0.9333333333333333 0  -1.466666666666667 -0.9333333333333333 0  -1.333333333333333 -0.9333333333333333 0  -1.2 -0.9333333333333333 0  -1.066666666666667 -0.9333333333333333 0  -0.9333333333333333 -0.9333333333333333 0  -0.8 -0.9333333333333333 0  -0.6666666666666667 -0.9333333333333333 0  -0.5333333333333334 -0.9333333333333333 0  -0.3999999999999999 -0.9333333333333333 0  -0.2666666666666666 -0.9333333333333333 0  -0.1333333333333333 -0.9333333333333333 0  0 -0.9333333333333333 0  0.1333333333333333 -0.9333333333333333 0  0.2666666666666666 -0.9333333333333333 0  0.3999999999999999 -0.9333333333333333 0  0.5333333333333332 -0.9333333333333333 0  0.6666666666666665 -0.9333333333333333 0  0.7999999999999998 -0.9333333333333333 0  0.9333333333333331 -0.9333333333333333 0  1.066666666666667 -0.9333333333333333 0  1.2 -0.9333333333333333 0  1.333333333333333 -0.9333333333333333 0  1.466666666666667 -0.9333333333333333 0  1.6 -0.9333333333333333 0  1.733333333333333 -0.9333333333333333 0  1.866666666666667 -0.9333333333333333 0  2 -0.9333333333333333 0  -2 -0.8 0  -1.866666666666667 -0.8 0  -1.733333333333333 -0.8 0  -1.6 -0.8 0  -1.466666666666667 -0.8 0  -1.333333333333333 -0.8 0  -1.2 -0.8 0  -1.066666666666667 -0.8 0  -0.9333333333333333 -0.8 0  -0.8 -0.8 0  -0.6666666666666667 -0.8 0  -0.5333333333333334 -0.8 0  -0.3999999999999999 -0.8 0  -0.2666666666666666 -0.8 0  -0.1333333333333333 -0.8 0  0 -0.8 0  0.1333333333333333 -0.8 0  0.2666666666666666 -0.8 0  0.3999999999999999 -0.8 0  0.5333333333333332 -0.8 0  0.6666666666666665 -0.8 0  0.7999999999999998 -0.8 0  0.9333333333333331 -0.8 0  1.066666666666667 -0.8 0  1.2 -0.8 0  1.333333333333333 -0.8 0  1.466666666666667 -0.8 0  1.6 -0.8 0  1.733333333333333 -0.8 0  1.866666666666667 -0.8 0  2 -0.8 0  -2 -0.6666666666666667 0  -1.866666666666667 -0.
[...]
<PointData  Scalars="f_12"> 
<DataArray  type="Float64"  Name="f_12"  format="ascii">0.0000000000000000e+00  0.0000000000000000e+00  0.0000000000000000e+00  0.0000000000000000e+00  0.0000000000000000e+00  0.0000000000000000e+00  0.0000000000000000e+00  0.0000000000000000e+00  0.0000000000000000e+00  0.0000000000000000e+00  0.0000000000000000e+00  0.0000000000000000e+00  0.0000000000000000e+00  0.0000000000000000e+00  0.0000000000000000e+00  0.0000000000000000e+00  0.0000000000000000e+00  0.0000000000000000e+00  0.0000000000000000e+00  0.0000000000000000e+00  0.0000000000000000e+00  0.0000000000000000e+00  0.0000000000000000e+00  0.0000000000000000e+00  0.0000000000000000e+00  0.0000000000000000e+00  0.0000000000000000e+00  0.0000000000000000e+00  0.0000000000000000e+00  0.0000000000000000e+00  0.0000000000000000e+00  0.0000000000000000e+00  5.3569314714128717e-04  1.0684390250878246e-03  1.5955607090405472e-03  2.1137126495460973e-03  2.6187442927846256e-03  3.1056197916223172e-03  3.5684330967234333e-03  4.0005313743217653e-03  4.3947438516130930e-03  4.7437006696998138e-03  5.0402159950199334e-03  5.2777019270998371e-03  5.4505753600041628e-03  5.5546194641528544e-03  5.5872650409510170e-03  5.5477643841242959e-03  5.4372407037972994e-03  5.2586084803556950e-03  5.0163729136098612e-03  4.7163284592049827e-03  4.3651859819713555e-03  3.9701643061089403e-03  3.5385843432917496e-03  3.0775024569090147e-03  2.5934146663416633e-03  2.0920555095824862e-03  1.5783060394818319e-03  1.0562162547397458e-03  5.2914157006244680e-04  0.0000000000000000e+00  0.0000000000000000e+00  1.0684390250878244e-03  2.1312121232104761e-03  3.1828401706523548e-03  4.2166213578088783e-03  5.2242786052875047e-03  6.1957755015446016e-03  7.1193379090704724e-03  7.9816965063033672e-03  8.7685416484185423e-03  9.4651589996738346e-03  1.0057194328205976e-02  1.0531480577642777e-02  1.0876851567909110e-02  1.1084865638932797e-02  1.1150369648429925e-02  1.1071848429444482e-02  1.0851525609692740e-02  1.0495206297879440e-02  1.0011877751373020e-02  9.4131078319226909e-03  8.7123001892978405e-03  7.9238776769431900e-03  7.0624703618602756e-03  6.1421814749649155e-03  5.1759945109905526e-03  4.1753689408265378e-03  3.1500526947892335e-03  2.1081190661250407e-03  1.0562162547397460e-03  0.0000000000000000e+00  0.0000000000000000e+00  1.5955607090405474e-03  3.1828401706523561e-03  4.7535909305211569e-03  6.2977958282802214e-03  7.8031051485505012e-03  9.2545432627060692e-03  1.0634531595800526e-02  1.1923246239701679e-02  1.3099295503495716e-02  1.4140669560875714e-02  1.5025884757266640e-02  1.5735222369651965e-02  1.6251948450819693e-02  1.6563399738362204e-02  1.6661831136248865e-02  1.6544942207822974e-02  1.6216031233785684e-02  1.5683762257226015e-02  1.4961568961651473e-02  1.4066754815940536e-02  1.3019377695057170e-02  1.1841026114427573e-02  1.0553601573448994e-02  9.1782170146210984e-03  7.7343061633432918e-03  6.2390147135912670e-03  4.7069148632966273e-03  3.1500526947892348e-03  1.5783060394818328e-03  0.0000000000000000e+00  0.0000000000000000e+00  2.1137126495460973e-03  4.2166213578088783e-03  6.2977958282802214e-03  8.3439867414547148e-03  1.0338860680873802e-02  1.2262597418583279e-02  1.4091911458528856e-02  1.5800521060695537e-02  1.7360044548282015e-02  1.8741260083532843e-02  1.9915625934102590e-02  2.0856927976802362e-02  2.1542903577245778e-02  2.1956688636497055e-02  2.2087948450736011e-02  2.1933582094579820e-02  2.1497931384582218e-02  2.0792474552506279e-02  1.9835035966036002e-02  1.8648590715761023e-02  1.7259781322676006e-02  1.5697289145337110e-02  1.3990212957091927e-02  1.2166601232304180e-02  1.0252264359380175e-02  8.2699611765525705e-03  6.2390147135912679e-03  4.1753689408265404e-03  2.0920555095824884e-03  0.0000000000000000e+00  0.0000000000000000e+00  2.6187442927846248e-03  5.2242786052875039e-03  7.8031051485504986e-03  1.0338860680873804e-02  1.2811354078390198e-02  1.5196055072619277e-02  1.7464112305079094e-02  1.9582929828369670e-02  2.1517277042953989e-02  2.3230852835932316e-02  2.4688175940083008e-02  2.5856635738419682e-02  2.6708515632537726e-02  2.7222797951710929e-02  2.7386576428619715e-02  2.7195938315166486e-02  2.6656229640358048e-02  2.5781678259696822e-02  2.4594413236736164e-02  2.3122978404868114e-02  2.1400486020322271e-02  1.9462588135810460e-02  1.7345455773459972e-02  1.5083948649833579e-02  1.2710132879854778e-02  1.0252264359380179e-02  7.7343061633432970e-03  5.1759945109905578e-03  2.5934146663416664e-03  0.0000000000000000e+00  0.0000000000000000e+00  3.1056197916223128e-03  6.1957755015445972e-03  9.2545432627060605e-03  1.2262597418583272e-02  1.5196055072619272e-02  1.8025857487978848e-02  2.0717782649496235e-02  2.3233124431250550e-02  2.5530009127122943e-02  2.7565255393451369e-02  2.9296625420202622e-02  3.0685269885982268e-02  3.1698142623160862e-02  3.2310156881546509e-02  3.2505875150048345e-02  3.2280567305656753e-02  3.1640533126638934e-02  3.0602658188376073e-02  2.9193248520613571e-02  2.7446260368437548e-02  2.5401098974844674e-02  2.3100198360785626e-02  2.0586609093756075e-02  1.7901812384633169e-02  1.5083948649833576e-02  1.2166601232304184e-02  9.1782170146211001e-03  6.1421814749649207e-03  3.0775024569090173e-03  0.0000000000000000e+00  0.0000000000000000e+00  3.5684330967234311e-03  7.1193379090704698e-03  1.0634531595800519e-02  1.4091911458528847e-02  1.7464112305079091e-02  2.0717782649496239e-02  2.3813589749814557e-02  2.6706995354098612e-02  2.9349769212981911e-02  3.1692132553145194e-02  3.3685356239681059e-02  3.5284585777727279e-02  3.6451634183859334e-02  3.7157478726232346e-02  3.7384220408969625e-02  3.7126314336435234e-02  3.6390949827169249e-02  3.5197543570584071e-02  3.3576397577659026e-02  3.1566655982186838e-02  2.9213761607872368e-02  2.6566657487556596e-02  2.3674996085997199e-02  2.0586609093756068e-02  1.7345455773459965e-02  1.3990212957091928e-02  1.0553601573448991e-02  7.0624703618602739e-03  3.5385843432917501e-03  0.0000000000000000e+00  0.0000000000000000e+00  4.0005313743217618e-03  7.9816965063033637e-03  1.1923246239701670e-02  1.5800521060695530e-02  1.9582929828369670e-02  2.3233124431250557e-02  2.6706995354098616e-02  2.9954536394310897e-02  3.2921542425084598e-02  3.5552019606261094e-02  3.7791111163688745e-02  3.9588282243679877e-02  4.0900471845420901e-02  4.1694913727098243e-02  4.1951353597936392e-02  4.1663445197058391e-02  4.0839187529301144e-02  3.9500360810767375e-02  3.7681018662853720e-02  3.5425187243050341e-02  3.2783997767064435e-02  2.9812529140800261e-02  2.6566657487556607e-02  2.3100198360785619e-02  1.9462588135810449e-02  1.5697289145337107e-02  1.1841026114427571e-02  7.9238776769431848e-03  3.9701643061089377e-03  0.0000000000000000e+00  0.0000000000000000e+00  4.3947438516130895e-03  8.7685416484185371e-03  1.3099295503495714e-02  1.7360044548282008e-02  2.1517277042953985e-02  2.5530009127122957e-02  2.9349769212981939e-02  3.2921542425084611e-02  3.6185636391780830e-02  3.9080336285116798e-02  4.1545132517207477e-02  4.3524238277777051e-02  4.4970074409718799e-02  4.5846391879118306e-02  4.6130729736556207e-02  4.5815967239820524e-02  4.4910816699239887e-02  4.3439208946162405e-02  4.1438634036912628e-02  3.8957603085426402e-02  3.6052481242754945e-02  3.2783997767064484e-02  2.9213761607872406e-02  2.5401098974844695e-02  2.1400486020322289e-02  1.7259781322676023e-02  1.3019377695057181e-02  8.7123001892978474e-03  4.3651859819713599e-03  0.0000000000000000e+00  0.0000000000000000e+00  4.7437006696998095e-03  9.4651589996738294e-03  1.4140669560875700e-02  1.8741260083532833e-02  2.3230852835932309e-02  2.7565255393451379e-02  3.1692132553145194e-02  3.5552019606261101e-02  3.9080336285116812e-02  4.2210259305566405e-02  4.4876219528833416e-02  4.7017717522672225e-02  4.8583107734420976e-02  4.9532993089576358e-02  4.9842901329552297e-02  4.9504979988853413e-02  4.8528542117775110e-02  4.6939409212128823e-02  4.4778118194219126e-02  4.2097171751861270e-02  3.8957603085426444e-02  3.5425187243050438e-02  3.1566655982186928e-02  2.7446260368437603e-02  2.3122978404868159e-02  1.8648590715761058e-02  1.4066754815940562e-02  9.4131078319227100e-03  4.7163284592049923e-03  0.0000000000000000e+00  0.0000000000000000e+00  5.0402159950199291e-03  1.0057194328205971e-02  1.5025884757266633e-02  1.9915625934102586e-02  2.4688175940083011e-02  2.9296625420202633e-02  3.3685356239681066e-02  3.7791111163688738e-02  4.1545132517207463e-02  4.4876219528833410e-02  4.7714455752980993e-02  4.9995280454377553e-02  5.1663530807589085e-02  5.2677072221065178e-02  5.3009665048293374e-02  5.2652785553550248e-02  5.1616220420343376e-02  4.9927376181216697e-02  4.7629373688211879e-02  4.4778118194219181e-02  4.1438634036912711e-02  3.7681018662853810e-02  3.3576397577659116e-02  2.9193248520613665e-02  2.4594413236736230e-02  1.9835035966036051e-02  1.4961568961651508e-02  1.0011877751373041e-02  5.0163729136098734e-03  0.0000000000000000e+00  0.0000000000000000e+00  5.2777019270998310e-03  1.0531480577642763e-02  1.5735222369651948e-02  2.0856927976802341e-02  2.5856635738419658e-02  3.0685269885982247e-02  3.5284585777727244e-02  3.9588282243679836e-02  4.3524238277777003e-02  4.7017717522672184e-02  4.9995280454377511e-02  5.2389062309422529e-02  5.4141024828638057e-02  5.5206779262516832e-02  5.5558610049959420e-02  5.5187401299997996e-02  5.4103274563150262e-02  5.2334874698314250e-02  4.9927376181216697e-02  4.6939409212128871e-02  4.3439208946162496e-02  3.9500360810767500e-02  3.5197543570584189e-02  3.0602658188376153e-02  2.5781678259696877e-02  2.0792474552506320e-02  1.5683762257226043e-02  1.0495206297879457e-02  5.2586084803557054e-03  0.0000000000000000e+00  0.0000000000000000e+00  5.4505753600041541e-03  1.0876851567909095e-02  1.6251948450819672e-02  2.1542903577245739e-02  2.6708515632537681e-02  3.1698142623160827e-02  3.6451634183859313e-02  4.0900471845420887e-02  4.4970074409718737e-02  4.8583107734420920e-02  5.1663530807589071e-02  5.4141024828638043e-02  5.5955399734566626e-02  5.7060560999871897e-02  5.7427652059611235e-02  5.7047062541574475e-02  5.5929102359050339e-02  5.4103274563150248e-02  5.1616220420343334e-02  4.8528542117775131e-02  4.4910816699239957e-02  4.0839187529301255e-02  3.6390949827169346e-02  3.1640533126638989e-02  2.6656229640358079e-02  2.1497931384582249e-02  1.6216031233785705e-02  1.0851525609692754e-02  5.4372407037973081e-03  0.0000000000000000e+00  0.0000000000000000e+00  5.5546194641528475e-03  1.1084865638932774e-02  1.6563399738362173e-02  2.1956688636497013e-02  2.7222797951710877e-02  3.2310156881546481e-02  3.7157478726232311e-02  4.1694913727098208e-02  4.5846391879118251e-02  4.9532993089576302e-02  5.2677072221065137e-02  5.5206779262516846e-02  5.7060560999871876e-02  5.8191218115490453e-02  5.8569124255201638e-02  5.8184289503181462e-02  5.7047062541574399e-02  5.5187401299997912e-02  5.2652785553550144e-02  4.9504979988853393e-02  4.5815967239820565e-02  4.1663445197058495e-02  3.7126314336435304e-02  3.2280567305656802e-02  2.7195938315166500e-02  2.1933582094579830e-02  1.6544942207822984e-02  1.1071848429444491e-02  5.5477643841243020e-03  0.0000000000000000e+00  0.0000000000000000e+00  5.5872650409510049e-03  1.1150369648429895e-02  1.6661831136248830e-02  2.2087948450735972e-02  2.7386576428619674e-02  3.2505875150048325e-02  3.7384220408969583e-02  4.1951353597936343e-02  4.6130729736556145e-02  4.9842901329552235e-02  5.3009665048293290e-02  5.5558610049959371e-02  5.7427652059611166e-02  5.8569124255201617e-02  5.8953028237737667e-02  5.8569124255201631e-02  5.7427652059611145e-02  5.5558610049959288e-02  5.3009665048293228e-02  4.9842901329552262e-02  4.6130729736556235e-02  4.1951353597936482e-02  3.7384220408969673e-02  3.2505875150048380e-02  2.7386576428619708e-02  2.2087948450736014e-02  1.6661831136248865e-02  1.1150369648429925e-02  5.5872650409510205e-03  0.0000000000000000e+00  0.0000000000000000e+00  5.5477643841242829e-03  1.1071848429444456e-02  1.6544942207822943e-02  2.1933582094579778e-02  2.7195938315166444e-02  3.2280567305656725e-02  3.7126314336435186e-02  4.1663445197058335e-02  4.5815967239820454e-02  4.9504979988853337e-02  5.2652785553550144e-02  5.5187401299997940e-02  5.7047062541574413e-02  5.8184289503181427e-02  5.8569124255201596e-02  5.8191218115490412e-02  5.7060560999871814e-02  5.5206779262516707e-02  5.2677072221065040e-02  4.9532993089576281e-02  4.5846391879118313e-02  4.1694913727098319e-02  3.7157478726232394e-02  3.2310156881546523e-02  2.7222797951710918e-02  2.1956688636497048e-02  1.6563399738362204e-02  1.1084865638932795e-02  5.5546194641528596e-03  0.0000000000000000e+00  0.0000000000000000e+00  5.4372407037972864e-03  1.0851525609692717e-02  1.6216031233785653e-02  2.1497931384582173e-02  2.6656229640357996e-02  3.1640533126638892e-02  3.6390949827169186e-02  4.0839187529301067e-02  4.4910816699239818e-02  4.8528542117775041e-02  5.1616220420343278e-02  5.4103274563150207e-02  5.5929102359050263e-02  5.7047062541574364e-02  5.7427652059611096e-02  5.7060560999871793e-02  5.5955399734566494e-02  5.4141024828637856e-02  5.1663530807588912e-02  4.8583107734420851e-02  4.4970074409718758e-02  4.0900471845420942e-02  3.6451634183859355e-02  3.1698142623160855e-02  2.6708515632537698e-02  2.1542903577245760e-02  1.6251948450819679e-02  1.0876851567909105e-02  5.4505753600041619e-03  0.0000000000000000e+00  0.0000000000000000e+00  5.2586084803556837e-03  1.0495206297879414e-02  1.5683762257225974e-02  2.0792474552506233e-02  2.5781678259696777e-02  3.0602658188376031e-02  3.5197543570584015e-02  3.9500360810767313e-02  4.3439208946162343e-02  4.6939409212128747e-02  4.9927376181216614e-02  5.2334874698314188e-02  5.4103274563150186e-02  5.5187401299997871e-02  5.5558610049959253e-02  5.5206779262516686e-02  5.4141024828637849e-02  5.2389062309422300e-02  4.9995280454377337e-02  4.7017717522672080e-02  4.3524238277776982e-02  3.9588282243679863e-02  3.5284585777727265e-02  3.0685269885982240e-02  2.5856635738419637e-02  2.0856927976802327e-02  1.5735222369651945e-02  1.0531480577642761e-02  5.2777019270998319e-03  0.0000000000000000e+00  0.0000000000000000e+00  5.0163729136098517e-03  1.0011877751372999e-02  1.4961568961651442e-02  1.9835035966035964e-02  2.4594413236736130e-02  2.9193248520613543e-02  3.3576397577658977e-02  3.7681018662853630e-02  4.1438634036912531e-02  4.4778118194219042e-02  4.7629373688211789e-02  4.9927376181216628e-02  5.1616220420343265e-02  5.2652785553550074e-02  5.3009665048293179e-02  5.2677072221064998e-02  5.1663530807588870e-02  4.9995280454377289e-02  4.7714455752980799e-02  4.4876219528833264e-02  4.1545132517207407e-02  3.7791111163688738e-02  3.3685356239681059e-02  2.9296625420202605e-02  2.4688175940082976e-02  1.9915625934102545e-02  1.5025884757266607e-02  1.0057194328205961e-02  5.0402159950199256e-03  0.0000000000000000e+00  0.0000000000000000e+00  4.7163284592049715e-03  9.4131078319226701e-03  1.4066754815940509e-02  1.8648590715760988e-02  2.3122978404868075e-02  2.7446260368437506e-02  3.1566655982186796e-02  3.5425187243050264e-02  3.8957603085426298e-02  4.2097171751861173e-02  4.4778118194219070e-02  4.6939409212128788e-02  4.8528542117775041e-02  4.9504979988853295e-02  4.9842901329552172e-02  4.9532993089576198e-02  4.8583107734420795e-02  4.7017717522672038e-02  4.4876219528833271e-02  4.2210259305566308e-02  3.9080336285116764e-02  3.5552019606261108e-02  3.1692132553145187e-02  2.7565255393451352e-02  2.3230852835932281e-02  1.8741260083532812e-02  1.4140669560875688e-02  9.4651589996738224e-03  4.7437006696998052e-03  0.0000000000000000e+00  0.0000000000000000e+00  4.3651859819713434e-03  8.7123001892978180e-03  1.3019377695057142e-02  1.7259781322675968e-02  2.1400486020322226e-02  2.5401098974844629e-02  2.9213761607872313e-02  3.2783997767064338e-02  3.6052481242754814e-02  3.8957603085426319e-02  4.1438634036912579e-02  4.3439208946162385e-02  4.4910816699239839e-02  4.5815967239820468e-02  4.6130729736556124e-02  4.5846391879118195e-02  4.4970074409718661e-02  4.3524238277776912e-02  4.1545132517207352e-02  3.9080336285116743e-02  3.6185636391780809e-02  3.2921542425084611e-02  2.9349769212981918e-02  2.5530009127122933e-02  2.1517277042953968e-02  1.7360044548282001e-02  1.3099295503495709e-02  8.7685416484185388e-03  4.3947438516130904e-03  0.0000000000000000e+00  0.0000000000000000e+00  3.9701643061089264e-03  7.9238776769431658e-03  1.1841026114427541e-02  1.5697289145337065e-02  1.9462588135810407e-02  2.3100198360785567e-02  2.6566657487556516e-02  2.9812529140800150e-02  3.2783997767064345e-02  3.5425187243050299e-02  3.7681018662853692e-02  3.9500360810767375e-02  4.0839187529301137e-02  4.1663445197058370e-02  4.1951353597936336e-02  4.1694913727098173e-02  4.0900471845420831e-02  3.9588282243679759e-02  3.7791111163688655e-02  3.5552019606261052e-02  3.2921542425084570e-02  2.9954536394310911e-02  2.6706995354098619e-02  2.3233124431250547e-02  1.9582929828369663e-02  1.5800521060695533e-02  1.1923246239701675e-02  7.9816965063033707e-03  4.0005313743217653e-03  0.0000000000000000e+00  0.0000000000000000e+00  3.5385843432917375e-03  7.0624703618602505e-03  1.0553601573448956e-02  1.3990212957091880e-02  1.7345455773459920e-02  2.0586609093756016e-02  2.3674996085997112e-02  2.6566657487556485e-02  2.9213761607872261e-02  3.1566655982186789e-02  3.3576397577659012e-02  3.5197543570584050e-02  3.6390949827169214e-02  3.7126314336435179e-02  3.7384220408969548e-02  3.7157478726232269e-02  3.6451634183859251e-02  3.5284585777727154e-02  3.3685356239680962e-02  3.1692132553145125e-02  2.9349769212981880e-02  2.6706995354098609e-02  2.3813589749814543e-02  2.0717782649496218e-02  1.7464112305079077e-02  1.4091911458528842e-02  1.0634531595800523e-02  7.1193379090704707e-03  3.5684330967234311e-03  0.0000000000000000e+00  0.0000000000000000e+00  3.0775024569090043e-03  6.1421814749648947e-03  9.1782170146210637e-03  1.2166601232304139e-02  1.5083948649833529e-02  1.7901812384633117e-02  2.0586609093755995e-02  2.3100198360785529e-02  2.5401098974844591e-02  2.7446260368437489e-02  2.9193248520613543e-02  3.0602658188376042e-02  3.1640533126638885e-02  3.2280567305656684e-02  3.2505875150048269e-02  3.2310156881546419e-02  3.1698142623160765e-02  3.0685269885982153e-02  2.9296625420202525e-02  2.7565255393451296e-02  2.5530009127122902e-02  2.3233124431250540e-02  2.0717782649496225e-02  1.8025857487978827e-02  1.5196055072619254e-02  1.2262597418583265e-02  9.2545432627060571e-03  6.1957755015445938e-03  3.1056197916223115e-03  0.0000000000000000e+00  0.0000000000000000e+00  2.5934146663416538e-03  5.1759945109905343e-03  7.7343061633432667e-03  1.0252264359380142e-02  1.2710132879854737e-02  1.5083948649833525e-02  1.7345455773459896e-02  1.9462588135810380e-02  2.1400486020322199e-02  2.3122978404868072e-02  2.4594413236736137e-02  2.5781678259696780e-02  2.6656229640357985e-02  2.7195938315166413e-02  2.7386576428619629e-02  2.7222797951710839e-02  2.6708515632537635e-02  2.5856635738419582e-02  2.4688175940082928e-02  2.3230852835932243e-02  2.1517277042953947e-02  1.9582929828369667e-02  1.7464112305079084e-02  1.5196055072619263e-02  1.2811354078390182e-02  1.0338860680873791e-02  7.8031051485504899e-03  5.2242786052874961e-03  2.6187442927846217e-03  0.0000000000000000e+00  0.0000000000000000e+00  2.0920555095824789e-03  4.1753689408265248e-03  6.2390147135912470e-03  8.2699611765525444e-03  1.0252264359380142e-02  1.2166601232304142e-02  1.3990212957091871e-02  1.5697289145337044e-02  1.7259781322675954e-02  1.8648590715760988e-02  1.9835035966035978e-02  2.0792474552506254e-02  2.1497931384582190e-02  2.1933582094579768e-02  2.2087948450735952e-02  2.1956688636496989e-02  2.1542903577245705e-02  2.0856927976802286e-02  1.9915625934102520e-02  1.8741260083532787e-02  1.7360044548281987e-02  1.5800521060695537e-02  1.4091911458528854e