<?xml version="1.0"?>
<VTKFile type="UnstructuredGrid"  version="0.1"  >
<UnstructuredGrid>
<Piece  NumberOfPoints="961" NumberOfCells="1800">
<Points>
<DataArray  type="Float64"  NumberOfComponents="3"  format="ascii">-2 -2 0  -1.866666666666667 -2 0  -1.733333333333333 -2 0  -1.6 -2 0  -1.466666666666667 -2 0  -1.333333333333333 -2 0  -1.2 -2 0  -1.066666666666667 -2 0  -0.9333333333333333 -2 0  -0.8 -2 0  -0.6666666666666667 -2 0  -0.5333333333333334 -2 0  -0.3999999999999999 -2 0  -0.2666666666666666 -2 0  -0.1333333333333333 -2 0  0 -2 0  0.1333333333333333 -2 0  0.2666666666666666 -2 0  0.3999999999999999 -2 0  0.5333333333333332 -2 0  0.6666666666666665 -2 0  0.7999999999999998 -2 0  0.9333333333333331 -2 0  1.066666666666667 -2 0  1.2 -2 0  1.333333333333333 -2 0  1.466666666666667 -2 0  1.6 -2 0  1.733333333333333 -2 0  1.866666666666667 -2 0  2 -2 0  -2 -1.866666666666667 0  -1.866666666666667 -1.866666666666667 0  -1.733333333333333 -1.866666666666667 0  -1.6 -1.866666666666667 0  -1.466666666666667 -1.866666666666667 0  -1.333333333333333 -1.866666666666667 0  -1.2 -1.866666666666667 0  -1.066666666666667 -1.866666666666667 0  -0.9333333333333333 -1.866666666666667 0  -0.8 -1.866666666666667 0  -0.6666666666666667 -1.866666666666667 0  -0.5333333333333334 -1.866666666666667 0  -0.3999999999999999 -1.866666666666667 0  -0.2666666666666666 -1.866666666666667 0  -0.1333333333333333 -1.866666666666667 0  0 -1.866666666666667 0  0.1333333333333333 -1.866666666666667 0  0.2666666666666666 -1.866666666666667 0  0.3999999999999999 -1.866666666666667 0  0.5333333333333332 -1.866666666666667 0  0.6666666666666665 -1.866666666666667 0  0.7999999999999998 -1.866666666666667 0  0.9333333333333331 -1.866666666666667 0  1.066666666666667 -1.866666666666667 0  1.2 -1.866666666666667 0  1.333333333333333 -1.866666666666667 0  1.466666666666667 -1.866666666666667 0  1.6 -1.866666666666667 0  1.733333333333333 -1.866666666666667 0  1.866666666666667 -1.866666666666667 0  2 -1.866666666666667 0  -2 -1.733333333333333 0  -1.866666666666667 -1.733333333333333 0  -1.733333333333333 -1.733333333333333 0  -1.6 -1.733333333333333 0  -1.466666666666667 -1.733333333333333 0  -1.333333333333333 -1.733333333333333 0  -1.2 -1.733333333333333 0  -1.066666666666667 -1.733333333333333 0  -0.9333333333333333 -1.733333333333333 0  -0.8 -1.733333333333333 0  -0.6666666666666667 -1.733333333333333 0  -0.5333333333333334 -1.733333333333333 0  -0.3999999999999999 -1.733333333333333 0  -0.2666666666666666 -1.733333333333333 0  -0.1333333333333333 -1.733333333333333 0  0 -1.733333333333333 0  0.1333333333333333 -1.733333333333333 0  0.2666666666666666 -1.733333333333333 0  0.3999999999999999 -1.733333333333333 0  0.5333333333333332 -1.733333333333333 0  0.6666666666666665 -1.733333333333333 0  0.7999999999999998 -1.733333333333333 0  0.9333333333333331 -1.733333333333333 0  1.066666666666667 -1.733333333333333 0  1.2 -1.733333333333333 0  1.333333333333333 -1.733333333333333 0  1.466666666666667 -1.733333333333333 0  1.6 -1.733333333333333 0  1.733333333333333 -1.733333333333333 0  1.866666666666667 -1.733333333333333 0  2 -1.733333333333333 0  -2 -1.6 0  -1.866666666666667 -1.6 0  -1.733333333333333 -1.6 0  -1.6 -1.6 0  -1.466666666666667 -1.6 0  -1.333333333333333 -1.6 0  -1.2 -1.6 0  -1.066666666666667 -1.6 0  -0.9333333333333333 -1.6 0  -0.8 -1.6 0  -0.6666666666666667 -1.6 0  -0.5333333333333334 -1.6 0  -0.3999999999999999 -1.6 0  -0.2666666666666666 -1.6 0  -0.1333333333333333 -1.6 0  0 -1.6 0  0.1333333333333333 -1.6 0  0.2666666666666666 -1.6 0  0.3999999999999999 -1.6 0  0.5333333333333332 -1.6 0  0.6666666666666665 -1.6 0  0.7999999999999998 -1.6 0  0.9333333333333331 -1.6 0  1.066666666666667 -1.6 0  1.2 -1.6 0  1.333333333333333 -1.6 0  1.466666666666667 -1.6 0  1.6 -1.6 0  1.733333333333333 -1.6 0  1.866666666666667 -1.6 0  2 -1.6 0  -2 -1.466666666666667 0  -1.866666666666667 -1.466666666666667 0  -1.733333333333333 -1.466666666666667 0  -1.6 -1.466666666666667 0  -1.466666666666667 -1.466666666666667 0  -1.333333333333333 -1.466666666666667 0  -1.2 -1.466666666666667 0  -1.066666666666667 -1.466666666666667 0  -0.9333333333333333 -1.466666666666667 0  -0.8 -1.466666666666667 0  -0.6666666666666667 -1.466666666666667 0  -0.5333333333333334 -1.466666666666667 0  -0.3999999999999999 -1.466666666666667 0  -0.2666666666666666 -1.466666666666667 0  -0.1333333333333333 -1.466666666666667 0  0 -1.466666666666667 0  0.1333333333333333 -1.466666666666667 0  0.2666666666666666 -1.466666666666667 0  0.3999999999999999 -1.466666666666667 0  0.5333333333333332 -1.466666666666667 0  0.6666666666666665 -1.466666666666667 0  0.7999999999999998 -1.466666666666667 0  0.9333333333333331 -1.466666666666667 0  1.066666666666667 -1.466666666666667 0  1.2 -1.466666666666667 0  1.333333333333333 -1.466666666666667 0  1.466666666666667 -1.466666666666667 0  1.6 -1.466666666666667 0  1.733333333333333 -1.466666666666667 0  1.866666666666667 -1.466666666666667 0  2 -1.466666666666667 0  -2 -1.333333333333333 0  -1.866666666666667 -1.333333333333333 0  -1.733333333333333 -1.333333333333333 0  -1.6 -1.333333333333333 0  -1.466666666666667 -1.333333333333333 0  -1.333333333333333 -1.333333333333333 0  -1.2 -1.333333333333333 0  -1.066666666666667 -1.333333333333333 0  -0.9333333333333333 -1.333333333333333 0  -0.8 -1.333333333333333 0  -0.6666666666666667 -1.333333333333333 0  -0.5333333333333334 -1.333333333333333 0  -0.3999999999999999 -1.333333333333333 0  -0.2666666666666666 -1.333333333333333 0  -0.1333333333333333 -1.333333333333333 0  0 -1.333333333333333 0  0.1333333333333333 -1.333333333333333 0  0.2666666666666666 -1.333333333333333 0  0.3999999999999999 -1.333333333333333 0  0.5333333333333332 -1.333333333333333 0  0.6666666666666665 -1.333333333333333 0  0.7999999999999998 -1.333333333333333 0  0.9333333333333331 -1.333333333333333 0  1.066666666666667 -1.333333333333333 0  1.2 -1.333333333333333 0  1.333333333333333 -1.333333333333333 0  1.466666666666667 -1.333333333333333 0  1.6 -1.333333333333333 0  1.733333333333333 -1.333333333333333 0  1.866666666666667 -1.333333333333333 0  2 -1.333333333333333 0  -2 -1.2 0  -1.866666666666667 -1.2 0  -1.733333333333333 -1.2 0  -1.6 -1.2 0  -1.466666666666667 -1.2 0  -1.333333333333333 -1.2 0  -1.2 -1.2 0  -1.066666666666667 -1.2 0  -0.9333333333333333 -1.2 0  -0.8 -1.2 0  -0.6666666666666667 -1.2 0  -0.5333333333333334 -1.2 0  -0.3999999999999999 -1.2 0  -0.2666666666666666 -1.2 0  -0.1333333333333333 -1.2 0  0 -1.2 0  0.1333333333333333 -1.2 0  0.2666666666666666 -1.2 0  0.3999999999999999 -1.2 0  0.5333333333333332 -1.2 0  0.6666666666666665 -1.2 0  0.7999999999999998 -1.2 0  0.9333333333333331 -1.2 0  1.066666666666667 -1.2 0  1.2 -1.2 0  1.333333333333333 -1.2 0  1.466666666666667 -1.2 0  1.6 -1.2 0  1.733333333333333 -1.2 0  1.866666666666667 -1.2 0  2 -1.2 0  -2 -1.066666666666667 0  -1.866666666666667 -1.066666666666667 0  -1.733333333333333 -1.066666666666667 0  -1.6 -1.066666666666667 0  -1.466666666666667 -1.066666666666667 0  -1.333333333333333 -1.066666666666667 0  -1.2 -1.066666666666667 0  -1.066666666666667 -1.066666666666667 0  -0.9333333333333333 -1.066666666666667 0  -0.8 -1.066666666666667 0  -0.6666666666666667 -1.066666666666667 0  -0.5333333333333334 -1.066666666666667 0  -0.3999999999999999 -1.066666666666667 0  -0.2666666666666666 -1.066666666666667 0  -0.1333333333333333 -1.066666666666667 0  0 -1.066666666666667 0  0.1333333333333333 -1.066666666666667 0  0.2666666666666666 -1.066666666666667 0  0.3999999999999999 -1.066666666666667 0  0.5333333333333332 -1.066666666666667 0  0.6666666666666665 -1.066666666666667 0  0.7999999999999998 -1.066666666666667 0  0.9333333333333331 -1.066666666666667 0  1.066666666666667 -1.066666666666667 0  1.2 -1.066666666666667 0  1.333333333333333 -1.066666666666667 0  1.466666666666667 -1.066666666666667 0  1.6 -1.066666666666667 0  1.733333333333333 -1.066666666666667 0  1.866666666666667 -1.066666666666667 0  2 -1.066666666666667 0  -2 -0.9333333333333333 0  -1.866666666666667 -0.9333333333333333 0  -1.733333333333333 -0.9333333333333333 0  -1.6 -0.9333333333333333 0  -1.466666666666667 -0.9333333333333333 0  -1.333333333333333 -0.9333333333333333 0  -1.2 -0.9333333333333333 0  -1.066666666666667 -0.9333333333333333 0  -0.9333333333333333 -0.9333333333333333 0  -0.8 -0.9333333333333333 0  -0.6666666666666667 -0.9333333333333333 0  -0.5333333333333334 -0.9333333333333333 0  -0.3999999999999999 -0.9333333333333333 0  -0.2666666666666666 -0.9333333333333333 0  -0.1333333333333333 -0.9333333333333333 0  0 -0.9333333333333333 0  0.1333333333333333 -0.9333333333333333 0  0.2666666666666666 -0.9333333333333333 0  0.3999999999999999 -0.9333333333333333 0  0.5333333333333332 -0.9333333333333333 0  0.6666666666666665 -0.9333333333333333 0  0.7999999999999998 -0.9333333333333333 0  0.9333333333333331 -0.9333333333333333 0  1.066666666666667 -0.9333333333333333 0  1.2 -0.9333333333333333 0  1.333333333333333 -0.9333333333333333 0  1.466666666666667 -0.9333333333333333 0  1.6 -0.9333333333333333 0  1.733333333333333 -0.9333333333333333 0  1.866666666666667 -0.9333333333333333 0  2 -0.9333333333333333 0  -2 -0.8 0  -1.866666666666667 -0.8 0  -1.733333333333333 -0.8 0  -1.6 -0.8 0  -1.466666666666667 -0.8 0  -1.333333333333333 -0.8 0  -1.2 -0.8 0  -1.066666666666667 -0.8 0  -0.9333333333333333 -0.8 0  -0.8 -0.8 0  -0.6666666666666667 -0.8 0  -0.5333333333333334 -0.8 0  -0.3999999999999999 -0.8 0  -0.2666666666666666 -0.8 0  -0.1333333333333333 -0.8 0  0 -0.8 0  0.1333333333333333 -0.8 0  0.2666666666666666 -0.8 0  0.3999999999999999 -0.8 0  0.5333333333333332 -0.8 0  0.6666666666666665 -0.8 0  0.7999999999999998 -0.8 0  0.9333333333333331 -0.8 0  1.066666666666667 -0.8 0  1.2 -0.8 0  1.333333333333333 -0.8 0  1.466666666666667 -0.8 0  1.6 -0.8 0  1.733333333333333 -0.8 0  1.866666666666667 -0.8 0  2 -0.8 0  -2 -0.6666666666666667 0  -1.866666666666667 -0.
[...]
<PointData  Scalars="f_12"> 
<DataArray  type="Float64"  Name="f_12"  format="ascii">0.0000000000000000e+00  0.0000000000000000e+00  0.0000000000000000e+00  0.0000000000000000e+00  0.0000000000000000e+00  0.0000000000000000e+00  0.0000000000000000e+00  0.0000000000000000e+00  0.0000000000000000e+00  0.0000000000000000e+00  0.0000000000000000e+00  0.0000000000000000e+00  0.0000000000000000e+00  0.0000000000000000e+00  0.0000000000000000e+00  0.0000000000000000e+00  0.0000000000000000e+00  0.0000000000000000e+00  0.0000000000000000e+00  0.0000000000000000e+00  0.0000000000000000e+00  0.0000000000000000e+00  0.0000000000000000e+00  0.0000000000000000e+00  0.0000000000000000e+00  0.0000000000000000e+00  0.0000000000000000e+00  0.0000000000000000e+00  0.0000000000000000e+00  0.0000000000000000e+00  0.0000000000000000e+00  0.0000000000000000e+00  4.5746559057623586e-04  9.1045127349681011e-04  1.3552930692872344e-03  1.7880551320657845e-03  2.2045740864600726e-03  2.6004838661417189e-03  2.9712604050009042e-03  3.3122980480267280e-03  3.6190185890623327e-03  3.8870078039044526e-03  4.1121703357121708e-03  4.2908911693143488e-03  4.4201906377778367e-03  4.4978599647018634e-03  4.5225657235696964e-03  4.4939141466452306e-03  4.4124696829149707e-03  4.2797262368377050e-03  4.0980337084418920e-03  3.8704863775746996e-03  3.6007829398807954e-03  3.2930702934282014e-03  2.9517842869098625e-03  2.5815005025067901e-03  2.1868068433667392e-03  1.7722074998443387e-03  1.3420653515646838e-03  9.0058831167224912e-04  4.5186813463629660e-04  0.0000000000000000e+00  0.0000000000000000e+00  9.1045127349681032e-04  1.8123594854626438e-03  2.6981834572423753e-03  3.5600125570413249e-03  4.3895337601629301e-03  5.1780464935025023e-03  5.9165404737860292e-03  6.5958436967612638e-03  7.2068377785222265e-03  7.7407290442877488e-03  8.1893567036530595e-03  8.5455145150559395e-03  8.8032598492074968e-03  8.9581841984192959e-03  9.0076219199964648e-03  8.9507790762848368e-03  8.7887711359503108e-03  8.5245663352727652e-03  8.1628398511448385e-03  7.7097517653343835e-03  7.1726683209184256e-03  6.5598505526997791e-03  5.8801365957173108e-03  5.1426436822945660e-03  4.3565131532413166e-03  3.5307171438845137e-03  2.6739396549019579e-03  1.7945384295378927e-03  9.0058831167224933e-04  0.0000000000000000e+00  0.0000000000000000e+00  1.3552930692872340e-03  2.6981834572423749e-03  4.0172883542259142e-03  5.3007607168726245e-03  6.5361939075555204e-03  7.7106207600477483e-03  8.8106187051462028e-03  9.8225250041989350e-03  1.0732754939980733e-02  1.1528204426391563e-02  1.2196708707567470e-02  1.2727521743425939e-02  1.3111777262546562e-02  1.3342892692720048e-02  1.3416881262788078e-02  1.3332545124363368e-02  1.3091532625352129e-02  1.2698254847021914e-02  1.2159668981053659e-02  1.1484947813153006e-02  1.0685064326260544e-02  9.7723272872119113e-03  8.7599070009347305e-03  7.6613899498851968e-03  6.4903969237823317e-03  5.2602919921909035e-03  3.9840000625484626e-03  2.6739396549019597e-03  1.3420653515646844e-03  0.0000000000000000e+00  0.0000000000000000e+00  1.7880551320657841e-03  3.5600125570413236e-03  5.3007607168726253e-03  6.9946169592644269e-03  8.6251850936635930e-03  1.0175341267172676e-02  1.1627364577061277e-02  1.2963216393595984e-02  1.4164957757401838e-02  1.5215279655369790e-02  1.6098108367417457e-02  1.6799238891150970e-02  1.7306944734191556e-02  1.7612512677256682e-02  1.7710656496890888e-02  1.7599773608101787e-02  1.7282022171933070e-02  1.6763212052314947e-02  1.6052519499872374e-02  1.5162050920666668e-02  1.4106294004451287e-02  1.2901503573365015e-02  1.1565073916891124e-02  1.0114948745958236e-02  8.5691143849007702e-03  6.9452120478945417e-03  5.2602919921909052e-03  3.5307171438845168e-03  1.7722074998443398e-03  0.0000000000000000e+00  0.0000000000000000e+00  2.2045740864600717e-03  4.3895337601629293e-03  6.5361939075555212e-03  8.6251850936635930e-03  1.0636271455570881e-02  1.2548326074003283e-02  1.4339486344175586e-02  1.5987494620838202e-02  1.7470210824669014e-02  1.8766265656510069e-02  1.9855807536791652e-02  2.0721285077138545e-02  2.1348201067810012e-02  2.1725774333771659e-02  2.1847452440489173e-02  2.1711230528875525e-02  2.1319748334579881e-02  2.0680157025257780e-02  1.9803767893319890e-02  1.8705514107748532e-02  1.7403272734528203e-02  1.5917105507239040e-02  1.4268482304902380e-02  1.2479550520561638e-02  1.0572506662538714e-02  8.5691143849007737e-03  6.4903969237823361e-03  4.3565131532413209e-03  2.1868068433667409e-03  0.0000000000000000e+00  0.0000000000000000e+00  2.6004838661417167e-03  5.1780464935024962e-03  7.7106207600477414e-03  1.0175341267172669e-02  1.2548326074003274e-02  1.4804643048303702e-02  1.6918489023268216e-02  1.8863588690879313e-02  2.0613797734679955e-02  2.2143873191114383e-02  2.3430355594874414e-02  2.4452494046619186e-02  2.5193138411616651e-02  2.5639523246513252e-02  2.5783875844248200e-02  2.5623795296268948e-02  2.5162369293417086e-02  2.4408018545442427e-02  2.3374082855654923e-02  2.2078185598023842e-02  2.0541432328806099e-02  1.8787512653428012e-02  1.6841780995771684e-02  1.4730391037545277e-02  1.2479550520561636e-02  1.0114948745958235e-02  7.6613899498851976e-03  5.1426436822945678e-03  2.5815005025067918e-03  0.0000000000000000e+00  0.0000000000000000e+00  2.9712604050009016e-03  5.9165404737860222e-03  8.8106187051461993e-03  1.1627364577061270e-02  1.4339486344175577e-02  1.6918489023268216e-02  1.9334875808581072e-02  2.1558601486752503e-02  2.3559760468911416e-02  2.5309467246551892e-02  2.6780865852582360e-02  2.7950189453780007e-02  2.8797783184217302e-02  2.9309003701265442e-02  2.9474917810122177e-02  2.9292739079175019e-02  2.8765964055799384e-02  2.7904196229192602e-02  2.6722673593948327e-02  2.5241541741082257e-02  2.3484936222042459e-02  2.1479953343920950e-02  1.9255596100689890e-02  1.6841780995771678e-02  1.4268482304902371e-02  1.1565073916891117e-02  8.7599070009347219e-03  5.8801365957173090e-03  2.9517842869098620e-03  0.0000000000000000e+00  0.0000000000000000e+00  3.3122980480267267e-03  6.5958436967612603e-03  9.8225250041989280e-03  1.2963216393595973e-02  1.5987494620838198e-02  1.8863588690879309e-02  2.1558601486752503e-02  2.4039013209716884e-02  2.6271447591309421e-02  2.8223653983702662e-02  2.9865634601019504e-02  3.1170828806400337e-02  3.2117257279644089e-02  3.2688529223461792e-02  3.2874625595953166e-02  3.2672389829119873e-02  3.2085682825263306e-02  3.1125188690863202e-02  2.9807888674857740e-02  2.8156249985480143e-02  2.6197200629709455e-02  2.3960978736178987e-02  2.1479953343920961e-02  1.8787512653428002e-02  1.5917105507239026e-02  1.2901503573365000e-02  9.7723272872119026e-03  6.5598505526997747e-03  3.2930702934281992e-03  0.0000000000000000e+00  0.0000000000000000e+00  3.6190185890623309e-03  7.2068377785222222e-03  1.0732754939980722e-02  1.4164957757401829e-02  1.7470210824669010e-02  2.0613797734679948e-02  2.3559760468911423e-02  2.6271447591309418e-02  2.8712350772748252e-02  3.0847178573281481e-02  3.2643090200563739e-02  3.4070992817396423e-02  3.5106795934607082e-02  3.5732516672556086e-02  3.5937140350515526e-02  3.5717161031900861e-02  3.5076754369743397e-02  3.4027567599763851e-02  3.2588145534976118e-02  3.0783043481018804e-02  2.8641704888492950e-02  2.6197200629709500e-02  2.3484936222042500e-02  2.0541432328806120e-02  1.7403272734528207e-02  1.4106294004451295e-02  1.0685064326260551e-02  7.1726683209184308e-03  3.6007829398807985e-03  0.0000000000000000e+00  0.0000000000000000e+00  3.8870078039044496e-03  7.7407290442877393e-03  1.1528204426391551e-02  1.5215279655369781e-02  1.8766265656510066e-02  2.2143873191114372e-02  2.5309467246551892e-02  2.8223653983702655e-02  3.0847178573281477e-02  3.3142079245272377e-02  3.5073014566727179e-02  3.6608660239834896e-02  3.7723060786343271e-02  3.8396821632915509e-02  3.8618038503576896e-02  3.8382882664072457e-02  3.7695790363635337e-02  3.6569239814376125e-02  3.5023135702174711e-02  3.3083855821007785e-02  3.0783043481018842e-02  2.8156249985480220e-02  2.5241541741082327e-02  2.2078185598023888e-02  1.8705514107748560e-02  1.5162050920666689e-02  1.1484947813153023e-02  7.7097517653343956e-03  3.8704863775747074e-03  0.0000000000000000e+00  0.0000000000000000e+00  4.1121703357121656e-03  8.1893567036530526e-03  1.2196708707567464e-02  1.6098108367417450e-02  1.9855807536791639e-02  2.3430355594874400e-02  2.6780865852582363e-02  2.9865634601019500e-02  3.2643090200563732e-02  3.5073014566727165e-02  3.7117949312182270e-02  3.8744676723737291e-02  3.9925654045246742e-02  4.0640279569694411e-02  4.0875881009305413e-02  4.0628339469025200e-02  3.9902293895903246e-02  3.8710907973992605e-02  3.7075220333665969e-02  3.5023135702174739e-02  3.2588145534976201e-02  2.9807888674857848e-02  2.6722673593948434e-02  2.3374082855654992e-02  1.9803767893319932e-02  1.6052519499872415e-02  1.2159668981053683e-02  8.1628398511448576e-03  4.0980337084419024e-03  0.0000000000000000e+00  0.0000000000000000e+00  4.2908911693143427e-03  8.5455145150559221e-03  1.2727521743425915e-02  1.6799238891150946e-02  2.0721285077138524e-02  2.4452494046619158e-02  2.7950189453779983e-02  3.1170828806400312e-02  3.4070992817396388e-02  3.6608660239834834e-02  3.8744676723737236e-02  4.0444303043632307e-02  4.1678715680876999e-02  4.2426332648011635e-02  4.2673849831492278e-02  4.2416896928965581e-02  4.1660254979614363e-02  4.0417616254716487e-02  3.8710907973992577e-02  3.6569239814376139e-02  3.4027567599763921e-02  3.1125188690863306e-02  2.7904196229192713e-02  2.4408018545442497e-02  2.0680157025257811e-02  1.6763212052314982e-02  1.2698254847021936e-02  8.5245663352727825e-03  4.2797262368377128e-03  0.0000000000000000e+00  0.0000000000000000e+00  4.4201906377778306e-03  8.8032598492074794e-03  1.3111777262546533e-02  1.7306944734191521e-02  2.1348201067809970e-02  2.5193138411616627e-02  2.8797783184217288e-02  3.2117257279644075e-02  3.5106795934607041e-02  3.7723060786343195e-02  3.9925654045246693e-02  4.1678715680877013e-02  4.2952472638429523e-02  4.3724608869383813e-02  4.3981337615517944e-02  4.3718081836310790e-02  4.2939702568298488e-02  4.1660254979614321e-02  3.9902293895903190e-02  3.7695790363635316e-02  3.5076754369743432e-02  3.2085682825263397e-02  2.8765964055799457e-02  2.5162369293417138e-02  2.1319748334579908e-02  1.7282022171933087e-02  1.3091532625352150e-02  8.7887711359503195e-03  4.4124696829149776e-03  0.0000000000000000e+00  0.0000000000000000e+00  4.4978599647018556e-03  8.9581841984192698e-03  1.3342892692720015e-02  1.7612512677256643e-02  2.1725774333771618e-02  2.5639523246513224e-02  2.9309003701265407e-02  3.2688529223461757e-02  3.5732516672556051e-02  3.8396821632915454e-02  4.0640279569694376e-02  4.2426332648011614e-02  4.3724608869383792e-02  4.4512319807172782e-02  4.4775355984227862e-02  4.4508983733264125e-02  4.3718081836310728e-02  4.2416896928965511e-02  4.0628339469025138e-02  3.8382882664072422e-02  3.5717161031900875e-02  3.2672389829119949e-02  2.9292739079175085e-02  2.5623795296268979e-02  2.1711230528875532e-02  1.7599773608101794e-02  1.3332545124363377e-02  8.9507790762848420e-03  4.4939141466452332e-03  0.0000000000000000e+00  0.0000000000000000e+00  4.5225657235696860e-03  9.0076219199964370e-03  1.3416881262788054e-02  1.7710656496890846e-02  2.1847452440489138e-02  2.5783875844248183e-02  2.9474917810122132e-02  3.2874625595953118e-02  3.5937140350515463e-02  3.8618038503576826e-02  4.0875881009305344e-02  4.2673849831492215e-02  4.3981337615517924e-02  4.4775355984227841e-02  4.5041640601894757e-02  4.4775355984227834e-02  4.3981337615517889e-02  4.2673849831492167e-02  4.0875881009305323e-02  3.8618038503576847e-02  3.5937140350515533e-02  3.2874625595953229e-02  2.9474917810122219e-02  2.5783875844248214e-02  2.1847452440489166e-02  1.7710656496890881e-02  1.3416881262788078e-02  9.0076219199964579e-03  4.5225657235696964e-03  0.0000000000000000e+00  0.0000000000000000e+00  4.4939141466452193e-03  8.9507790762848160e-03  1.3332545124363337e-02  1.7599773608101745e-02  2.1711230528875480e-02  2.5623795296268920e-02  2.9292739079174970e-02  3.2672389829119811e-02  3.5717161031900806e-02  3.8382882664072387e-02  4.0628339469025131e-02  4.2416896928965525e-02  4.3718081836310742e-02  4.4508983733264111e-02  4.4775355984227813e-02  4.4512319807172747e-02  4.3724608869383744e-02  4.2426332648011544e-02  4.0640279569694321e-02  3.8396821632915447e-02  3.5732516672556072e-02  3.2688529223461826e-02  2.9309003701265480e-02  2.5639523246513248e-02  2.1725774333771646e-02  1.7612512677256664e-02  1.3342892692720029e-02  8.9581841984192855e-03  4.4978599647018634e-03  0.0000000000000000e+00  0.0000000000000000e+00  4.4124696829149594e-03  8.7887711359502848e-03  1.3091532625352098e-02  1.7282022171933028e-02  2.1319748334579839e-02  2.5162369293417065e-02  2.8765964055799328e-02  3.2085682825263244e-02  3.5076754369743335e-02  3.7695790363635268e-02  3.9902293895903176e-02  4.1660254979614293e-02  4.2939702568298432e-02  4.3718081836310686e-02  4.3981337615517861e-02  4.3724608869383751e-02  4.2952472638429426e-02  4.1678715680876895e-02  3.9925654045246617e-02  3.7723060786343195e-02  3.5106795934607062e-02  3.2117257279644110e-02  2.8797783184217295e-02  2.5193138411616637e-02  2.1348201067809987e-02  1.7306944734191532e-02  1.3111777262546543e-02  8.8032598492074864e-03  4.4201906377778341e-03  0.0000000000000000e+00  0.0000000000000000e+00  4.2797262368376937e-03  8.5245663352727444e-03  1.2698254847021879e-02  1.6763212052314912e-02  2.0680157025257731e-02  2.4408018545442407e-02  2.7904196229192570e-02  3.1125188690863153e-02  3.4027567599763782e-02  3.6569239814376042e-02  3.8710907973992521e-02  4.0417616254716425e-02  4.1660254979614265e-02  4.2416896928965456e-02  4.2673849831492132e-02  4.2426332648011510e-02  4.1678715680876874e-02  4.0444303043632161e-02  3.8744676723737131e-02  3.6608660239834764e-02  3.4070992817396353e-02  3.1170828806400326e-02  2.7950189453779990e-02  2.4452494046619148e-02  2.0721285077138506e-02  1.6799238891150935e-02  1.2727521743425911e-02  8.5455145150559204e-03  4.2908911693143419e-03  0.0000000000000000e+00  0.0000000000000000e+00  4.0980337084418816e-03  8.1628398511448142e-03  1.2159668981053624e-02  1.6052519499872339e-02  1.9803767893319845e-02  2.3374082855654892e-02  2.6722673593948303e-02  2.9807888674857685e-02  3.2588145534976042e-02  3.5023135702174614e-02  3.7075220333665865e-02  3.8710907973992528e-02  3.9902293895903135e-02  4.0628339469025068e-02  4.0875881009305282e-02  4.0640279569694272e-02  3.9925654045246575e-02  3.8744676723737104e-02  3.7117949312182125e-02  3.5073014566727075e-02  3.2643090200563683e-02  2.9865634601019500e-02  2.6780865852582360e-02  2.3430355594874382e-02  1.9855807536791621e-02  1.6098108367417423e-02  1.2196708707567450e-02  8.1893567036530404e-03  4.1121703357121621e-03  0.0000000000000000e+00  0.0000000000000000e+00  3.8704863775746892e-03  7.7097517653343609e-03  1.1484947813152974e-02  1.5162050920666628e-02  1.8705514107748490e-02  2.2078185598023797e-02  2.5241541741082209e-02  2.8156249985480074e-02  3.0783043481018714e-02  3.3083855821007688e-02  3.5023135702174642e-02  3.6569239814376063e-02  3.7695790363635254e-02  3.8382882664072353e-02  3.8618038503576778e-02  3.8396821632915384e-02  3.7723060786343146e-02  3.6608660239834737e-02  3.5073014566727054e-02  3.3142079245272280e-02  3.0847178573281443e-02  2.8223653983702662e-02  2.5309467246551889e-02  2.2143873191114351e-02  1.8766265656510045e-02  1.5215279655369767e-02  1.1528204426391546e-02  7.7407290442877367e-03  3.8870078039044465e-03  0.0000000000000000e+00  0.0000000000000000e+00  3.6007829398807842e-03  7.1726683209184022e-03  1.0685064326260513e-02  1.4106294004451247e-02  1.7403272734528151e-02  2.0541432328806040e-02  2.3484936222042393e-02  2.6197200629709379e-02  2.8641704888492835e-02  3.0783043481018745e-02  3.2588145534976083e-02  3.4027567599763824e-02  3.5076754369743370e-02  3.5717161031900806e-02  3.5937140350515442e-02  3.5732516672555982e-02  3.5106795934606985e-02  3.4070992817396312e-02  3.2643090200563649e-02  3.0847178573281418e-02  2.8712350772748224e-02  2.6271447591309435e-02  2.3559760468911423e-02  2.0613797734679935e-02  1.7470210824669003e-02  1.4164957757401824e-02  1.0732754939980719e-02  7.2068377785222222e-03  3.6190185890623301e-03  0.0000000000000000e+00  0.0000000000000000e+00  3.2930702934281879e-03  6.5598505526997539e-03  9.7723272872118749e-03  1.2901503573364965e-02  1.5917105507238981e-02  1.8787512653427943e-02  2.1479953343920867e-02  2.3960978736178879e-02  2.6197200629709372e-02  2.8156249985480105e-02  2.9807888674857737e-02  3.1125188690863202e-02  3.2085682825263299e-02  3.2672389829119838e-02  3.2874625595953118e-02  3.2688529223461729e-02  3.2117257279644026e-02  3.1170828806400253e-02  2.9865634601019424e-02  2.8223653983702617e-02  2.6271447591309404e-02  2.4039013209716908e-02  2.1558601486752513e-02  1.8863588690879309e-02  1.5987494620838198e-02  1.2963216393595980e-02  9.8225250041989367e-03  6.5958436967612664e-03  3.3122980480267293e-03  0.0000000000000000e+00  0.0000000000000000e+00  2.9517842869098499e-03  5.8801365957172873e-03  8.7599070009346924e-03  1.1565073916891077e-02  1.4268482304902330e-02  1.6841780995771619e-02  1.9255596100689800e-02  2.1479953343920857e-02  2.3484936222042389e-02  2.5241541741082216e-02  2.6722673593948330e-02  2.7904196229192602e-02  2.8765964055799335e-02  2.9292739079174963e-02  2.9474917810122118e-02  2.9309003701265376e-02  2.8797783184217236e-02  2.7950189453779906e-02  2.6780865852582290e-02  2.5309467246551830e-02  2.3559760468911388e-02  2.1558601486752513e-02  1.9334875808581068e-02  1.6918489023268198e-02  1.4339486344175567e-02  1.1627364577061268e-02  8.8106187051461976e-03  5.9165404737860231e-03  2.9712604050009016e-03  0.0000000000000000e+00  0.0000000000000000e+00  2.5815005025067797e-03  5.1426436822945469e-03  7.6613899498851681e-03  1.0114948745958195e-02  1.2479550520561595e-02  1.4730391037545226e-02  1.6841780995771605e-02  1.8787512653427919e-02  2.0541432328806026e-02  2.2078185598023790e-02  2.3374082855654899e-02  2.4408018545442410e-02  2.5162369293417048e-02  2.5623795296268896e-02  2.5783875844248141e-02  2.5639523246513179e-02  2.5193138411616568e-02  2.4452494046619085e-02  2.3430355594874327e-02  2.2143873191114313e-02  2.0613797734679917e-02  1.8863588690879306e-02  1.6918489023268209e-02  1.4804643048303688e-02  1.2548326074003260e-02  1.0175341267172658e-02  7.7106207600477362e-03  5.1780464935024927e-03  2.6004838661417150e-03  0.0000000000000000e+00  0.0000000000000000e+00  2.1868068433667297e-03  4.3565131532413018e-03  6.4903969237823092e-03  8.5691143849007355e-03  1.0572506662538672e-02  1.2479550520561591e-02  1.4268482304902316e-02  1.5917105507238963e-02  1.7403272734528130e-02  1.8705514107748487e-02  1.9803767893319859e-02  2.0680157025257752e-02  2.1319748334579842e-02  2.1711230528875476e-02  2.1847452440489107e-02  2.1725774333771587e-02  2.1348201067809939e-02  2.0721285077138468e-02  1.9855807536791580e-02  1.8766265656510014e-02  1.7470210824668982e-02  1.5987494620838198e-02  1.4339486344175575e-02  1.2548326074003260e-02  1.0636271455570863e-02  8.6251850936635791e-03  6.5361939075555099e-03  4.3895337601629206e-03  2.2045740864600699e-03  0.0000000000000000e+00  0.0000000000000000e+00  1.7722074998443318e-03  3.5307171438845012e-03  5.2602919921908844e-03  6.9452120478945140e-03  8.5691143849007372e-03  1.0114948745958197e-02  1.1565073916891072e-02  1.2901503573364947e-02  1.4106294004451233e-02  1.5162050920666626e-02  1.6052519499872353e-02  1.6763212052314930e-02  1.7282022171933042e-02  1.7599773608101752e-02  1.7710656496890843e-02  1.7612512677256626e-02  1.7306944734191500e-02  1.6799238891150908e-02  1.6098108367417398e-02  1.5215279655369750e-02  1.4164957757401822e-02  1.2963216393595985e-02  1.1627364577061275e