<?xml version="1.0"?>
<VTKFile type="UnstructuredGrid"  version="0.1"  >
<UnstructuredGrid>
<Piece  NumberOfPoints="961" NumberOfCells="1800">
<Points>
<DataArray  type="Float64"  NumberOfComponents="3"  format="ascii">-2 -2 0  -1.866666666666667 -2 0  -1.733333333333333 -2 0  -1.6 -2 0  -1.466666666666667 -2 0  -1.333333333333333 -2 0  -1.2 -2 0  -1.066666666666667 -2 0  -0.9333333333333333 -2 0  -0.8 -2 0  -0.6666666666666667 -2 0  -0.5333333333333334 -2 0  -0.3999999999999999 -2 0  -0.2666666666666666 -2 0  -0.1333333333333333 -2 0  0 -2 0  0.1333333333333333 -2 0  0.2666666666666666 -2 0  0.3999999999999999 -2 0  0.5333333333333332 -2 0  0.6666666666666665 -2 0  0.7999999999999998 -2 0  0.9333333333333331 -2 0  1.066666666666667 -2 0  1.2 -2 0  1.333333333333333 -2 0  1.466666666666667 -2 0  1.6 -2 0  1.733333333333333 -2 0  1.866666666666667 -2 0  2 -2 0  -2 -1.866666666666667 0  -1.866666666666667 -1.866666666666667 0  -1.733333333333333 -1.866666666666667 0  -1.6 -1.866666666666667 0  -1.466666666666667 -1.866666666666667 0  -1.333333333333333 -1.866666666666667 0  -1.2 -1.866666666666667 0  -1.066666666666667 -1.866666666666667 0  -0.9333333333333333 -1.866666666666667 0  -0.8 -1.866666666666667 0  -0.6666666666666667 -1.866666666666667 0  -0.5333333333333334 -1.866666666666667 0  -0.3999999999999999 -1.866666666666667 0  -0.2666666666666666 -1.866666666666667 0  -0.1333333333333333 -1.866666666666667 0  0 -1.866666666666667 0  0.1333333333333333 -1.866666666666667 0  0.2666666666666666 -1.866666666666667 0  0.3999999999999999 -1.866666666666667 0  0.5333333333333332 -1.866666666666667 0  0.6666666666666665 -1.866666666666667 0  0.7999999999999998 -1.866666666666667 0  0.9333333333333331 -1.866666666666667 0  1.066666666666667 -1.866666666666667 0  1.2 -1.866666666666667 0  1.333333333333333 -1.866666666666667 0  1.466666666666667 -1.866666666666667 0  1.6 -1.866666666666667 0  1.733333333333333 -1.866666666666667 0  1.866666666666667 -1.866666666666667 0  2 -1.866666666666667 0  -2 -1.733333333333333 0  -1.866666666666667 -1.733333333333333 0  -1.733333333333333 -1.733333333333333 0  -1.6 -1.733333333333333 0  -1.466666666666667 -1.733333333333333 0  -1.333333333333333 -1.733333333333333 0  -1.2 -1.733333333333333 0  -1.066666666666667 -1.733333333333333 0  -0.9333333333333333 -1.733333333333333 0  -0.8 -1.733333333333333 0  -0.6666666666666667 -1.733333333333333 0  -0.5333333333333334 -1.733333333333333 0  -0.3999999999999999 -1.733333333333333 0  -0.2666666666666666 -1.733333333333333 0  -0.1333333333333333 -1.733333333333333 0  0 -1.733333333333333 0  0.1333333333333333 -1.733333333333333 0  0.2666666666666666 -1.733333333333333 0  0.3999999999999999 -1.733333333333333 0  0.5333333333333332 -1.733333333333333 0  0.6666666666666665 -1.733333333333333 0  0.7999999999999998 -1.733333333333333 0  0.9333333333333331 -1.733333333333333 0  1.066666666666667 -1.733333333333333 0  1.2 -1.733333333333333 0  1.333333333333333 -1.733333333333333 0  1.466666666666667 -1.733333333333333 0  1.6 -1.733333333333333 0  1.733333333333333 -1.733333333333333 0  1.866666666666667 -1.733333333333333 0  2 -1.733333333333333 0  -2 -1.6 0  -1.866666666666667 -1.6 0  -1.733333333333333 -1.6 0  -1.6 -1.6 0  -1.466666666666667 -1.6 0  -1.333333333333333 -1.6 0  -1.2 -1.6 0  -1.066666666666667 -1.6 0  -0.9333333333333333 -1.6 0  -0.8 -1.6 0  -0.6666666666666667 -1.6 0  -0.5333333333333334 -1.6 0  -0.3999999999999999 -1.6 0  -0.2666666666666666 -1.6 0  -0.1333333333333333 -1.6 0  0 -1.6 0  0.1333333333333333 -1.6 0  0.2666666666666666 -1.6 0  0.3999999999999999 -1.6 0  0.5333333333333332 -1.6 0  0.6666666666666665 -1.6 0  0.7999999999999998 -1.6 0  0.9333333333333331 -1.6 0  1.066666666666667 -1.6 0  1.2 -1.6 0  1.333333333333333 -1.6 0  1.466666666666667 -1.6 0  1.6 -1.6 0  1.733333333333333 -1.6 0  1.866666666666667 -1.6 0  2 -1.6 0  -2 -1.466666666666667 0  -1.866666666666667 -1.466666666666667 0  -1.733333333333333 -1.466666666666667 0  -1.6 -1.466666666666667 0  -1.466666666666667 -1.466666666666667 0  -1.333333333333333 -1.466666666666667 0  -1.2 -1.466666666666667 0  -1.066666666666667 -1.466666666666667 0  -0.9333333333333333 -1.466666666666667 0  -0.8 -1.466666666666667 0  -0.6666666666666667 -1.466666666666667 0  -0.5333333333333334 -1.466666666666667 0  -0.3999999999999999 -1.466666666666667 0  -0.2666666666666666 -1.466666666666667 0  -0.1333333333333333 -1.466666666666667 0  0 -1.466666666666667 0  0.1333333333333333 -1.466666666666667 0  0.2666666666666666 -1.466666666666667 0  0.3999999999999999 -1.466666666666667 0  0.5333333333333332 -1.466666666666667 0  0.6666666666666665 -1.466666666666667 0  0.7999999999999998 -1.466666666666667 0  0.9333333333333331 -1.466666666666667 0  1.066666666666667 -1.466666666666667 0  1.2 -1.466666666666667 0  1.333333333333333 -1.466666666666667 0  1.466666666666667 -1.466666666666667 0  1.6 -1.466666666666667 0  1.733333333333333 -1.466666666666667 0  1.866666666666667 -1.466666666666667 0  2 -1.466666666666667 0  -2 -1.333333333333333 0  -1.866666666666667 -1.333333333333333 0  -1.733333333333333 -1.333333333333333 0  -1.6 -1.333333333333333 0  -1.466666666666667 -1.333333333333333 0  -1.333333333333333 -1.333333333333333 0  -1.2 -1.333333333333333 0  -1.066666666666667 -1.333333333333333 0  -0.9333333333333333 -1.333333333333333 0  -0.8 -1.333333333333333 0  -0.6666666666666667 -1.333333333333333 0  -0.5333333333333334 -1.333333333333333 0  -0.3999999999999999 -1.333333333333333 0  -0.2666666666666666 -1.333333333333333 0  -0.1333333333333333 -1.333333333333333 0  0 -1.333333333333333 0  0.1333333333333333 -1.333333333333333 0  0.2666666666666666 -1.333333333333333 0  0.3999999999999999 -1.333333333333333 0  0.5333333333333332 -1.333333333333333 0  0.6666666666666665 -1.333333333333333 0  0.7999999999999998 -1.333333333333333 0  0.9333333333333331 -1.333333333333333 0  1.066666666666667 -1.333333333333333 0  1.2 -1.333333333333333 0  1.333333333333333 -1.333333333333333 0  1.466666666666667 -1.333333333333333 0  1.6 -1.333333333333333 0  1.733333333333333 -1.333333333333333 0  1.866666666666667 -1.333333333333333 0  2 -1.333333333333333 0  -2 -1.2 0  -1.866666666666667 -1.2 0  -1.733333333333333 -1.2 0  -1.6 -1.2 0  -1.466666666666667 -1.2 0  -1.333333333333333 -1.2 0  -1.2 -1.2 0  -1.066666666666667 -1.2 0  -0.9333333333333333 -1.2 0  -0.8 -1.2 0  -0.6666666666666667 -1.2 0  -0.5333333333333334 -1.2 0  -0.3999999999999999 -1.2 0  -0.2666666666666666 -1.2 0  -0.1333333333333333 -1.2 0  0 -1.2 0  0.1333333333333333 -1.2 0  0.2666666666666666 -1.2 0  0.3999999999999999 -1.2 0  0.5333333333333332 -1.2 0  0.6666666666666665 -1.2 0  0.7999999999999998 -1.2 0  0.9333333333333331 -1.2 0  1.066666666666667 -1.2 0  1.2 -1.2 0  1.333333333333333 -1.2 0  1.466666666666667 -1.2 0  1.6 -1.2 0  1.733333333333333 -1.2 0  1.866666666666667 -1.2 0  2 -1.2 0  -2 -1.066666666666667 0  -1.866666666666667 -1.066666666666667 0  -1.733333333333333 -1.066666666666667 0  -1.6 -1.066666666666667 0  -1.466666666666667 -1.066666666666667 0  -1.333333333333333 -1.066666666666667 0  -1.2 -1.066666666666667 0  -1.066666666666667 -1.066666666666667 0  -0.9333333333333333 -1.066666666666667 0  -0.8 -1.066666666666667 0  -0.6666666666666667 -1.066666666666667 0  -0.5333333333333334 -1.066666666666667 0  -0.3999999999999999 -1.066666666666667 0  -0.2666666666666666 -1.066666666666667 0  -0.1333333333333333 -1.066666666666667 0  0 -1.066666666666667 0  0.1333333333333333 -1.066666666666667 0  0.2666666666666666 -1.066666666666667 0  0.3999999999999999 -1.066666666666667 0  0.5333333333333332 -1.066666666666667 0  0.6666666666666665 -1.066666666666667 0  0.7999999999999998 -1.066666666666667 0  0.9333333333333331 -1.066666666666667 0  1.066666666666667 -1.066666666666667 0  1.2 -1.066666666666667 0  1.333333333333333 -1.066666666666667 0  1.466666666666667 -1.066666666666667 0  1.6 -1.066666666666667 0  1.733333333333333 -1.066666666666667 0  1.866666666666667 -1.066666666666667 0  2 -1.066666666666667 0  -2 -0.9333333333333333 0  -1.866666666666667 -0.9333333333333333 0  -1.733333333333333 -0.9333333333333333 0  -1.6 -0.9333333333333333 0  -1.466666666666667 -0.9333333333333333 0  -1.333333333333333 -0.9333333333333333 0  -1.2 -0.9333333333333333 0  -1.066666666666667 -0.9333333333333333 0  -0.9333333333333333 -0.9333333333333333 0  -0.8 -0.9333333333333333 0  -0.6666666666666667 -0.9333333333333333 0  -0.5333333333333334 -0.9333333333333333 0  -0.3999999999999999 -0.9333333333333333 0  -0.2666666666666666 -0.9333333333333333 0  -0.1333333333333333 -0.9333333333333333 0  0 -0.9333333333333333 0  0.1333333333333333 -0.9333333333333333 0  0.2666666666666666 -0.9333333333333333 0  0.3999999999999999 -0.9333333333333333 0  0.5333333333333332 -0.9333333333333333 0  0.6666666666666665 -0.9333333333333333 0  0.7999999999999998 -0.9333333333333333 0  0.9333333333333331 -0.9333333333333333 0  1.066666666666667 -0.9333333333333333 0  1.2 -0.9333333333333333 0  1.333333333333333 -0.9333333333333333 0  1.466666666666667 -0.9333333333333333 0  1.6 -0.9333333333333333 0  1.733333333333333 -0.9333333333333333 0  1.866666666666667 -0.9333333333333333 0  2 -0.9333333333333333 0  -2 -0.8 0  -1.866666666666667 -0.8 0  -1.733333333333333 -0.8 0  -1.6 -0.8 0  -1.466666666666667 -0.8 0  -1.333333333333333 -0.8 0  -1.2 -0.8 0  -1.066666666666667 -0.8 0  -0.9333333333333333 -0.8 0  -0.8 -0.8 0  -0.6666666666666667 -0.8 0  -0.5333333333333334 -0.8 0  -0.3999999999999999 -0.8 0  -0.2666666666666666 -0.8 0  -0.1333333333333333 -0.8 0  0 -0.8 0  0.1333333333333333 -0.8 0  0.2666666666666666 -0.8 0  0.3999999999999999 -0.8 0  0.5333333333333332 -0.8 0  0.6666666666666665 -0.8 0  0.7999999999999998 -0.8 0  0.9333333333333331 -0.8 0  1.066666666666667 -0.8 0  1.2 -0.8 0  1.333333333333333 -0.8 0  1.466666666666667 -0.8 0  1.6 -0.8 0  1.733333333333333 -0.8 0  1.866666666666667 -0.8 0  2 -0.8 0  -2 -0.6666666666666667 0  -1.866666666666667 -0.
[...]
<PointData  Scalars="f_12"> 
<DataArray  type="Float64"  Name="f_12"  format="ascii">0.0000000000000000e+00  0.0000000000000000e+00  0.0000000000000000e+00  0.0000000000000000e+00  0.0000000000000000e+00  0.0000000000000000e+00  0.0000000000000000e+00  0.0000000000000000e+00  0.0000000000000000e+00  0.0000000000000000e+00  0.0000000000000000e+00  0.0000000000000000e+00  0.0000000000000000e+00  0.0000000000000000e+00  0.0000000000000000e+00  0.0000000000000000e+00  0.0000000000000000e+00  0.0000000000000000e+00  0.0000000000000000e+00  0.0000000000000000e+00  0.0000000000000000e+00  0.0000000000000000e+00  0.0000000000000000e+00  0.0000000000000000e+00  0.0000000000000000e+00  0.0000000000000000e+00  0.0000000000000000e+00  0.0000000000000000e+00  0.0000000000000000e+00  0.0000000000000000e+00  0.0000000000000000e+00  0.0000000000000000e+00  5.5492849134913867e-04  1.1085669464903280e-03  1.6593851291983389e-03  2.2048995009924985e-03  2.7413868870700855e-03  3.2637137620011390e-03  3.7653173150610682e-03  4.2383524912616832e-03  4.6740008774998959e-03  5.0629200088493382e-03  5.3957959966392894e-03  5.6639498305264208e-03  5.8599398960467539e-03  5.9781014512444762e-03  6.0149686300301139e-03  5.9695357290089285e-03  5.8433309217711749e-03  5.6402951832568143e-03  5.3664796549779160e-03  5.0295933870456470e-03  4.6384480960397993e-03  4.2023556539078320e-03  3.7305366926179543e-03  3.2315950863649194e-03  2.7131040599841466e-03  2.1813367465661061e-03  1.6411589978519328e-03  1.0960871921341273e-03  5.4850138113109463e-04  0.0000000000000000e+00  0.0000000000000000e+00  1.1085669464903285e-03  2.2146099247251864e-03  3.3150457069150174e-03  4.4049313576894761e-03  5.4768559754483827e-03  6.5205876403655284e-03  7.5230302702330078e-03  8.4685145353158488e-03  9.3394136397187567e-03  1.0117041026930762e-02  1.0782755887828685e-02  1.1319177201996039e-02  1.1711391292901420e-02  1.1948034131743432e-02  1.2022139142051674e-02  1.1931663554696033e-02  1.1679639126956371e-02  1.1273932381351440e-02  1.0726640545758202e-02  1.0053186956904948e-02  9.2712092748283136e-03  8.3993521644997789e-03  7.4560815471570920e-03  6.4586303194297586e-03  5.4221673761860470e-03  4.3592557811753148e-03  3.2796355243697598e-03  2.1903350811067956e-03  1.0960871921341275e-03  0.0000000000000000e+00  0.0000000000000000e+00  1.6593851291983395e-03  3.3150457069150187e-03  4.9623983222910019e-03  6.5940974965522500e-03  8.1991012980639402e-03  9.7621300287887708e-03  1.1263594364130207e-02  1.2680027072163608e-02  1.3985004009644985e-02  1.5150490010296299e-02  1.6148498578115712e-02  1.6952916422342795e-02  1.7541319996492298e-02  1.7896605327618543e-02  1.8008266498721174e-02  1.7873191503043659e-02  1.7495893379451025e-02  1.6888153727759998e-02  1.6068117519369641e-02  1.5058934816193002e-02  1.3887089704413271e-02  1.2580584460670468e-02  1.1167155279507015e-02  9.6726851009992509e-03  8.1199518728302111e-03  6.5278113447761110e-03  4.9108674372085517e-03  3.2796355243697611e-03  1.6411589978519339e-03  0.0000000000000000e+00  0.0000000000000000e+00  2.2048995009924985e-03  4.4049313576894761e-03  6.5940974965522509e-03  8.7627341654130421e-03  1.0896249627129566e-02  1.2974390424845316e-02  1.4971136668811010e-02  1.6855271211480699e-02  1.8591603673546554e-02  2.0142763767129309e-02  2.1471416021140558e-02  2.2542697228162756e-02  2.3326645713051316e-02  2.3800383304326607e-02  2.3949829372077985e-02  2.3770770653624752e-02  2.3269176262251601e-02  2.2460726473979609e-02  2.1369606729799744e-02  2.0026694366472562e-02  1.8467325625942825e-02  1.6728867774202714e-02  1.4848332410428685e-02  1.2860251648329478e-02  1.0795002398800786e-02  8.6777113455961136e-03  6.5278113447761136e-03  4.3592557811753191e-03  2.1813367465661083e-03  0.0000000000000000e+00  0.0000000000000000e+00  2.7413868870700855e-03  5.4768559754483827e-03  8.1991012980639402e-03  1.0896249627129566e-02  1.3550269198081392e-02  1.6136040450067349e-02  1.8621214452825535e-02  2.0966915364100929e-02  2.3129263703585427e-02  2.5061614203958259e-02  2.6717323919747103e-02  2.8052802411429437e-02  2.9030555037024324e-02  2.9621919589959529e-02  2.9809219218920956e-02  2.9587109814800713e-02  2.8962982202198714e-02  2.7956378779073719e-02  2.6597488288682282e-02  2.4924878066678303e-02  2.2982698677467508e-02  2.0817642841693625e-02  1.8475954806957136e-02  1.6000768290618680e-02  1.3430005349553338e-02  1.0795002398800791e-02  8.1199518728302198e-03  5.4221673761860540e-03  2.7131040599841496e-03  0.0000000000000000e+00  0.0000000000000000e+00  3.2637137620011364e-03  6.5205876403655223e-03  9.7621300287887621e-03  1.2974390424845305e-02  1.6136040450067342e-02  1.9217247587802373e-02  2.2179492972360736e-02  2.4976401620524006e-02  2.7555558374809372e-02  2.9861183372003993e-02  3.1837447045404130e-02  3.3432127645488328e-02  3.4600264738301002e-02  3.5307448539343388e-02  3.5532411604756550e-02  3.5268655328032861e-02  3.4524942172544253e-02  3.3324603915030677e-02  3.1703741420294945e-02  2.9708506766952268e-02  2.7391749728185529e-02  2.4809367377717707e-02  2.2016712889080022e-02  1.9065397970333738e-02  1.6000768290618680e-02  1.2860251648329483e-02  9.6726851009992596e-03  6.4586303194297647e-03  3.2315950863649220e-03  0.0000000000000000e+00  0.0000000000000000e+00  3.7653173150610651e-03  7.5230302702330000e-03  1.1263594364130198e-02  1.4971136668810990e-02  1.8621214452825531e-02  2.2179492972360743e-02  2.5601519333660078e-02  2.8833673213508319e-02  3.1815264916351477e-02  3.4481635678742670e-02  3.6768005819674356e-02  3.8613726230413960e-02  3.9966530357702389e-02  4.0786367211198549e-02  4.1048426240417164e-02  4.0745041159013035e-02  3.9886274231573017e-02  3.8499121586127068e-02  3.6625426296948517e-02  3.4318720734262592e-02  3.1640326365911117e-02  2.8655105704887954e-02  2.5427281470488703e-02  2.2016712889080012e-02  1.8475954806957115e-02  1.4848332410428681e-02  1.1167155279507020e-02  7.4560815471570920e-03  3.7305366926179556e-03  0.0000000000000000e+00  0.0000000000000000e+00  4.2383524912616814e-03  8.4685145353158454e-03  1.2680027072163603e-02  1.6855271211480692e-02  2.0966915364100915e-02  2.4976401620524009e-02  2.8833673213508330e-02  3.2478236323561914e-02  3.5841524679605032e-02  3.8850404354844291e-02  4.1431531842219128e-02  4.3516175622317660e-02  4.5045044363515863e-02  4.5972645082832643e-02  4.6270728166537871e-02  4.5930462117323628e-02  4.4963110611333609e-02  4.3399142499026502e-02  4.1285871853606534e-02  3.8683878843890872e-02  3.5662584030739859e-02  3.2295424751140417e-02  2.8655105704887940e-02  2.4809367377717686e-02  2.0817642841693604e-02  1.6728867774202696e-02  1.2580584460670466e-02  8.3993521644997755e-03  4.2023556539078294e-03  0.0000000000000000e+00  0.0000000000000000e+00  4.6740008774998933e-03  9.3394136397187515e-03  1.3985004009644975e-02  1.8591603673546543e-02  2.3129263703585420e-02  2.7555558374809375e-02  3.1815264916351484e-02  3.5841524679605032e-02  3.9558452926100413e-02  4.2885018889786512e-02  4.5739879301964034e-02  4.8046733541891512e-02  4.9739693055210164e-02  5.0768134590511244e-02  5.1100543158701404e-02  5.0726945520070274e-02  4.9659678962154473e-02  4.7932416039132515e-02  4.5597551585611552e-02  4.2722229953809865e-02  3.9383426680163522e-02  3.5662584030739929e-02  3.1640326365911159e-02  2.7391749728185550e-02  2.2982698677467519e-02  1.8467325625942835e-02  1.3887089704413279e-02  9.2712092748283223e-03  4.6384480960398036e-03  0.0000000000000000e+00  0.0000000000000000e+00  5.0629200088493347e-03  1.0117041026930753e-02  1.5150490010296292e-02  2.0142763767129309e-02  2.5061614203958270e-02  2.9861183372004000e-02  3.4481635678742670e-02  3.8850404354844305e-02  4.2885018889786505e-02  4.6497321485783692e-02  4.9598729205871057e-02  5.2106072267970448e-02  5.3947455497323105e-02  5.5067563585382423e-02  5.5431869397857658e-02  5.5029307358139379e-02  5.3873130697360556e-02  5.1999863483530757e-02  4.9466461511061703e-02  4.6345984285727476e-02  4.2722229953809913e-02  3.8683878843890976e-02  3.4318720734262675e-02  2.9708506766952324e-02  2.4924878066678341e-02  2.0026694366472600e-02  1.5058934816193036e-02  1.0053186956904969e-02  5.0295933870456591e-03  0.0000000000000000e+00  0.0000000000000000e+00  5.3957959966392851e-03  1.0782755887828678e-02  1.6148498578115702e-02  2.1471416021140548e-02  2.6717323919747109e-02  3.1837447045404123e-02  3.6768005819674342e-02  4.1431531842219128e-02  4.5739879301964020e-02  4.9598729205871050e-02  5.2913220726746736e-02  5.5594207866128217e-02  5.7564549065517084e-02  5.8764807891495616e-02  5.9157783154808942e-02  5.8731396199410577e-02  5.7499630830579490e-02  5.5501427527614763e-02  5.2797652081912561e-02  4.9466461511061766e-02  4.5597551585611656e-02  4.1285871853606680e-02  3.6625426296948628e-02  3.1703741420295035e-02  2.6597488288682351e-02  2.1369606729799800e-02  1.6068117519369693e-02  1.0726640545758229e-02  5.3664796549779308e-03  0.0000000000000000e+00  0.0000000000000000e+00  5.6639498305264139e-03  1.1319177201996024e-02  1.6952916422342774e-02  2.2542697228162729e-02  2.8052802411429413e-02  3.3432127645488315e-02  3.8613726230413939e-02  4.3516175622317632e-02  4.8046733541891470e-02  5.2106072267970413e-02  5.5594207866128183e-02  5.8417096787982757e-02  6.0493275654689260e-02  6.1759887649199319e-02  6.2177480179498618e-02  6.1733072935731374e-02  6.0441171948711188e-02  5.8342622838769814e-02  5.5501427527614743e-02  5.1999863483530792e-02  4.7932416039132612e-02  4.3399142499026655e-02  3.8499121586127200e-02  3.3324603915030754e-02  2.7956378779073771e-02  2.2460726473979658e-02  1.6888153727760039e-02  1.1273932381351468e-02  5.6402951832568264e-03  0.0000000000000000e+00  0.0000000000000000e+00  5.8599398960467444e-03  1.1711391292901403e-02  1.7541319996492274e-02  2.3326645713051278e-02  2.9030555037024276e-02  3.4600264738300981e-02  3.9966530357702375e-02  4.5045044363515814e-02  4.9739693055210088e-02  5.3947455497323063e-02  5.7564549065517022e-02  6.0493275654689205e-02  6.2648921230744642e-02  6.3966026534963069e-02  6.4403388341273085e-02  6.3947268531901830e-02  6.2612470956537228e-02  6.0441171948711146e-02  5.7499630830579490e-02  5.3873130697360563e-02  4.9659678962154549e-02  4.4963110611333734e-02  3.9886274231573114e-02  3.4524942172544308e-02  2.8962982202198752e-02  2.3269176262251643e-02  1.7495893379451059e-02  1.1679639126956395e-02  5.8433309217711844e-03  0.0000000000000000e+00  0.0000000000000000e+00  5.9781014512444658e-03  1.1948034131743411e-02  1.7896605327618526e-02  2.3800383304326583e-02  2.9621919589959505e-02  3.5307448539343367e-02  4.0786367211198507e-02  4.5972645082832587e-02  5.0768134590511195e-02  5.5067563585382361e-02  5.8764807891495553e-02  6.1759887649199291e-02  6.3966026534963069e-02  6.5316076114985341e-02  6.5767648898695977e-02  6.5306423134131888e-02  6.3947268531901802e-02  6.1733072935731319e-02  5.8731396199410514e-02  5.5029307358139351e-02  5.0726945520070316e-02  4.5930462117323739e-02  4.0745041159013104e-02  3.5268655328032895e-02  2.9587109814800731e-02  2.3770770653624779e-02  1.7873191503043687e-02  1.1931663554696050e-02  5.9695357290089372e-03  0.0000000000000000e+00  0.0000000000000000e+00  6.0149686300301026e-03  1.2022139142051649e-02  1.8008266498721153e-02  2.3949829372077954e-02  2.9809219218920942e-02  3.5532411604756522e-02  4.1048426240417116e-02  4.6270728166537801e-02  5.1100543158701328e-02  5.5431869397857561e-02  5.9157783154808831e-02  6.2177480179498562e-02  6.4403388341273043e-02  6.5767648898695935e-02  6.6227304204320103e-02  6.5767648898695949e-02  6.4403388341273043e-02  6.2177480179498493e-02  5.9157783154808824e-02  5.5431869397857596e-02  5.1100543158701404e-02  4.6270728166537947e-02  4.1048426240417227e-02  3.5532411604756578e-02  2.9809219218920966e-02  2.3949829372077996e-02  1.8008266498721188e-02  1.2022139142051679e-02  6.0149686300301191e-03  0.0000000000000000e+00  0.0000000000000000e+00  5.9695357290089172e-03  1.1931663554696012e-02  1.7873191503043638e-02  2.3770770653624731e-02  2.9587109814800686e-02  3.5268655328032826e-02  4.0745041159012972e-02  4.5930462117323566e-02  5.0726945520070191e-02  5.5029307358139289e-02  5.8731396199410472e-02  6.1733072935731319e-02  6.3947268531901788e-02  6.5306423134131861e-02  6.5767648898695907e-02  6.5316076114985300e-02  6.3966026534963000e-02  6.1759887649199180e-02  5.8764807891495477e-02  5.5067563585382340e-02  5.0768134590511216e-02  4.5972645082832705e-02  4.0786367211198597e-02  3.5307448539343401e-02  2.9621919589959529e-02  2.3800383304326610e-02  1.7896605327618550e-02  1.1948034131743434e-02  5.9781014512444788e-03  0.0000000000000000e+00  0.0000000000000000e+00  5.8433309217711601e-03  1.1679639126956349e-02  1.7495893379451000e-02  2.3269176262251567e-02  2.8962982202198659e-02  3.4524942172544197e-02  3.9886274231572955e-02  4.4963110611333540e-02  4.9659678962154390e-02  5.3873130697360459e-02  5.7499630830579400e-02  6.0441171948711125e-02  6.2612470956537172e-02  6.3947268531901746e-02  6.4403388341272988e-02  6.3966026534963014e-02  6.2648921230744503e-02  6.0493275654689087e-02  5.7564549065516932e-02  5.3947455497323028e-02  4.9739693055210137e-02  4.5045044363515904e-02  3.9966530357702403e-02  3.4600264738301002e-02  2.9030555037024310e-02  2.3326645713051306e-02  1.7541319996492295e-02  1.1711391292901415e-02  5.8599398960467531e-03  0.0000000000000000e+00  0.0000000000000000e+00  5.6402951832568013e-03  1.1273932381351420e-02  1.6888153727759966e-02  2.2460726473979568e-02  2.7956378779073678e-02  3.3324603915030629e-02  3.8499121586127019e-02  4.3399142499026447e-02  4.7932416039132439e-02  5.1999863483530674e-02  5.5501427527614638e-02  5.8342622838769738e-02  6.0441171948711112e-02  6.1733072935731249e-02  6.2177480179498444e-02  6.1759887649199145e-02  6.0493275654689052e-02  5.8417096787982528e-02  5.5594207866128023e-02  5.2106072267970316e-02  4.8046733541891443e-02  4.3516175622317667e-02  3.8613726230413946e-02  3.3432127645488294e-02  2.8052802411429410e-02  2.2542697228162725e-02  1.6952916422342777e-02  1.1319177201996026e-02  5.6639498305264165e-03  0.0000000000000000e+00  0.0000000000000000e+00  5.3664796549779048e-03  1.0726640545758179e-02  1.6068117519369606e-02  2.1369606729799706e-02  2.6597488288682240e-02  3.1703741420294911e-02  3.6625426296948448e-02  4.1285871853606465e-02  4.5597551585611497e-02  4.9466461511061613e-02  5.2797652081912429e-02  5.5501427527614659e-02  5.7499630830579372e-02  5.8731396199410417e-02  5.9157783154808741e-02  5.8764807891495401e-02  5.7564549065516876e-02  5.5594207866127975e-02  5.2913220726746549e-02  4.9598729205870919e-02  4.5739879301963958e-02  4.1431531842219135e-02  3.6768005819674342e-02  3.1837447045404095e-02  2.6717323919747085e-02  2.1471416021140527e-02  1.6148498578115688e-02  1.0782755887828670e-02  5.3957959966392834e-03  0.0000000000000000e+00  0.0000000000000000e+00  5.0295933870456357e-03  1.0053186956904926e-02  1.5058934816192972e-02  2.0026694366472527e-02  2.4924878066678272e-02  2.9708506766952227e-02  3.4318720734262523e-02  3.8683878843890795e-02  4.2722229953809775e-02  4.6345984285727372e-02  4.9466461511061634e-02  5.1999863483530695e-02  5.3873130697360445e-02  5.5029307358139240e-02  5.5431869397857485e-02  5.5067563585382243e-02  5.3947455497322924e-02  5.2106072267970246e-02  4.9598729205870891e-02  4.6497321485783588e-02  4.2885018889786471e-02  3.8850404354844326e-02  3.4481635678742677e-02  2.9861183372003979e-02  2.5061614203958246e-02  2.0142763767129295e-02  1.5150490010296282e-02  1.0117041026930751e-02  5.0629200088493321e-03  0.0000000000000000e+00  0.0000000000000000e+00  4.6384480960397862e-03  9.2712092748282876e-03  1.3887089704413234e-02  1.8467325625942780e-02  2.2982698677467460e-02  2.7391749728185477e-02  3.1640326365911041e-02  3.5662584030739776e-02  3.9383426680163404e-02  4.2722229953809775e-02  4.5597551585611532e-02  4.7932416039132515e-02  4.9659678962154417e-02  5.0726945520070198e-02  5.1100543158701266e-02  5.0768134590511091e-02  4.9739693055210019e-02  4.8046733541891359e-02  4.5739879301963896e-02  4.2885018889786422e-02  3.9558452926100385e-02  3.5841524679605052e-02  3.1815264916351491e-02  2.7555558374809372e-02  2.3129263703585416e-02  1.8591603673546543e-02  1.3985004009644975e-02  9.3394136397187532e-03  4.6740008774998941e-03  0.0000000000000000e+00  0.0000000000000000e+00  4.2023556539078164e-03  8.3993521644997494e-03  1.2580584460670424e-02  1.6728867774202658e-02  2.0817642841693570e-02  2.4809367377717641e-02  2.8655105704887857e-02  3.2295424751140306e-02  3.5662584030739790e-02  3.8683878843890823e-02  4.1285871853606534e-02  4.3399142499026523e-02  4.4963110611333602e-02  4.5930462117323587e-02  4.6270728166537788e-02  4.5972645082832546e-02  4.5045044363515765e-02  4.3516175622317542e-02  4.1431531842219038e-02  3.8850404354844249e-02  3.5841524679605018e-02  3.2478236323561942e-02  2.8833673213508337e-02  2.4976401620524009e-02  2.0966915364100929e-02  1.6855271211480699e-02  1.2680027072163614e-02  8.4685145353158523e-03  4.2383524912616840e-03  0.0000000000000000e+00  0.0000000000000000e+00  3.7305366926179409e-03  7.4560815471570660e-03  1.1167155279506976e-02  1.4848332410428631e-02  1.8475954806957080e-02  2.2016712889079960e-02  2.5427281470488613e-02  2.8655105704887829e-02  3.1640326365911027e-02  3.4318720734262544e-02  3.6625426296948489e-02  3.8499121586127054e-02  3.9886274231572975e-02  4.0745041159012951e-02  4.1048426240417067e-02  4.0786367211198438e-02  3.9966530357702285e-02  3.8613726230413828e-02  3.6768005819674245e-02  3.4481635678742593e-02  3.1815264916351428e-02  2.8833673213508323e-02  2.5601519333660071e-02  2.2179492972360722e-02  1.8621214452825517e-02  1.4971136668810994e-02  1.1263594364130203e-02  7.5230302702330026e-03  3.7653173150610651e-03  0.0000000000000000e+00  0.0000000000000000e+00  3.2315950863649086e-03  6.4586303194297387e-03  9.6726851009992197e-03  1.2860251648329438e-02  1.6000768290618635e-02  1.9065397970333690e-02  2.2016712889079935e-02  2.4809367377717606e-02  2.7391749728185446e-02  2.9708506766952206e-02  3.1703741420294904e-02  3.3324603915030643e-02  3.4524942172544190e-02  3.5268655328032777e-02  3.5532411604756460e-02  3.5307448539343290e-02  3.4600264738300905e-02  3.3432127645488204e-02  3.1837447045404012e-02  2.9861183372003917e-02  2.7555558374809348e-02  2.4976401620524006e-02  2.2179492972360732e-02  1.9217247587802355e-02  1.6136040450067321e-02  1.2974390424845293e-02  9.7621300287887604e-03  6.5205876403655189e-03  3.2637137620011342e-03  0.0000000000000000e+00  0.0000000000000000e+00  2.7131040599841371e-03  5.4221673761860323e-03  8.1199518728301869e-03  1.0795002398800753e-02  1.3430005349553294e-02  1.6000768290618635e-02  1.8475954806957063e-02  2.0817642841693539e-02  2.2982698677467432e-02  2.4924878066678237e-02  2.6597488288682226e-02  2.7956378779073671e-02  2.8962982202198655e-02  2.9587109814800651e-02  2.9809219218920886e-02  2.9621919589959449e-02  2.9030555037024241e-02  2.8052802411429347e-02  2.6717323919747016e-02  2.5061614203958204e-02  2.3129263703585402e-02  2.0966915364100926e-02  1.8621214452825531e-02  1.6136040450067335e-02  1.3550269198081373e-02  1.0896249627129550e-02  8.1991012980639315e-03  5.4768559754483732e-03  2.7413868870700821e-03  0.0000000000000000e+00  0.0000000000000000e+00  2.1813367465660996e-03  4.3592557811753026e-03  6.5278113447760910e-03  8.6777113455960841e-03  1.0795002398800756e-02  1.2860251648329445e-02  1.4848332410428627e-02  1.6728867774202637e-02  1.8467325625942763e-02  2.0026694366472517e-02  2.1369606729799706e-02  2.2460726473979571e-02  2.3269176262251560e-02  2.3770770653624713e-02  2.3949829372077937e-02  2.3800383304326551e-02  2.3326645713051250e-02  2.2542697228162677e-02  2.1471416021140489e-02  2.0142763767129264e-02  1.8591603673546529e-02  1.6855271211480703e-02  1.4971136668811004e