<?xml version="1.0"?>
<VTKFile type="UnstructuredGrid"  version="0.1"  >
<UnstructuredGrid>
<Piece  NumberOfPoints="961" NumberOfCells="1800">
<Points>
<DataArray  type="Float64"  NumberOfComponents="3"  format="ascii">-2 -2 0  -1.866666666666667 -2 0  -1.733333333333333 -2 0  -1.6 -2 0  -1.466666666666667 -2 0  -1.333333333333333 -2 0  -1.2 -2 0  -1.066666666666667 -2 0  -0.9333333333333333 -2 0  -0.8 -2 0  -0.6666666666666667 -2 0  -0.5333333333333334 -2 0  -0.3999999999999999 -2 0  -0.2666666666666666 -2 0  -0.1333333333333333 -2 0  0 -2 0  0.1333333333333333 -2 0  0.2666666666666666 -2 0  0.3999999999999999 -2 0  0.5333333333333332 -2 0  0.6666666666666665 -2 0  0.7999999999999998 -2 0  0.9333333333333331 -2 0  1.066666666666667 -2 0  1.2 -2 0  1.333333333333333 -2 0  1.466666666666667 -2 0  1.6 -2 0  1.733333333333333 -2 0  1.866666666666667 -2 0  2 -2 0  -2 -1.866666666666667 0  -1.866666666666667 -1.866666666666667 0  -1.733333333333333 -1.866666666666667 0  -1.6 -1.866666666666667 0  -1.466666666666667 -1.866666666666667 0  -1.333333333333333 -1.866666666666667 0  -1.2 -1.866666666666667 0  -1.066666666666667 -1.866666666666667 0  -0.9333333333333333 -1.866666666666667 0  -0.8 -1.866666666666667 0  -0.6666666666666667 -1.866666666666667 0  -0.5333333333333334 -1.866666666666667 0  -0.3999999999999999 -1.866666666666667 0  -0.2666666666666666 -1.866666666666667 0  -0.1333333333333333 -1.866666666666667 0  0 -1.866666666666667 0  0.1333333333333333 -1.866666666666667 0  0.2666666666666666 -1.866666666666667 0  0.3999999999999999 -1.866666666666667 0  0.5333333333333332 -1.866666666666667 0  0.6666666666666665 -1.866666666666667 0  0.7999999999999998 -1.866666666666667 0  0.9333333333333331 -1.866666666666667 0  1.066666666666667 -1.866666666666667 0  1.2 -1.866666666666667 0  1.333333333333333 -1.866666666666667 0  1.466666666666667 -1.866666666666667 0  1.6 -1.866666666666667 0  1.733333333333333 -1.866666666666667 0  1.866666666666667 -1.866666666666667 0  2 -1.866666666666667 0  -2 -1.733333333333333 0  -1.866666666666667 -1.733333333333333 0  -1.733333333333333 -1.733333333333333 0  -1.6 -1.733333333333333 0  -1.466666666666667 -1.733333333333333 0  -1.333333333333333 -1.733333333333333 0  -1.2 -1.733333333333333 0  -1.066666666666667 -1.733333333333333 0  -0.9333333333333333 -1.733333333333333 0  -0.8 -1.733333333333333 0  -0.6666666666666667 -1.733333333333333 0  -0.5333333333333334 -1.733333333333333 0  -0.3999999999999999 -1.733333333333333 0  -0.2666666666666666 -1.733333333333333 0  -0.1333333333333333 -1.733333333333333 0  0 -1.733333333333333 0  0.1333333333333333 -1.733333333333333 0  0.2666666666666666 -1.733333333333333 0  0.3999999999999999 -1.733333333333333 0  0.5333333333333332 -1.733333333333333 0  0.6666666666666665 -1.733333333333333 0  0.7999999999999998 -1.733333333333333 0  0.9333333333333331 -1.733333333333333 0  1.066666666666667 -1.733333333333333 0  1.2 -1.733333333333333 0  1.333333333333333 -1.733333333333333 0  1.466666666666667 -1.733333333333333 0  1.6 -1.733333333333333 0  1.733333333333333 -1.733333333333333 0  1.866666666666667 -1.733333333333333 0  2 -1.733333333333333 0  -2 -1.6 0  -1.866666666666667 -1.6 0  -1.733333333333333 -1.6 0  -1.6 -1.6 0  -1.466666666666667 -1.6 0  -1.333333333333333 -1.6 0  -1.2 -1.6 0  -1.066666666666667 -1.6 0  -0.9333333333333333 -1.6 0  -0.8 -1.6 0  -0.6666666666666667 -1.6 0  -0.5333333333333334 -1.6 0  -0.3999999999999999 -1.6 0  -0.2666666666666666 -1.6 0  -0.1333333333333333 -1.6 0  0 -1.6 0  0.1333333333333333 -1.6 0  0.2666666666666666 -1.6 0  0.3999999999999999 -1.6 0  0.5333333333333332 -1.6 0  0.6666666666666665 -1.6 0  0.7999999999999998 -1.6 0  0.9333333333333331 -1.6 0  1.066666666666667 -1.6 0  1.2 -1.6 0  1.333333333333333 -1.6 0  1.466666666666667 -1.6 0  1.6 -1.6 0  1.733333333333333 -1.6 0  1.866666666666667 -1.6 0  2 -1.6 0  -2 -1.466666666666667 0  -1.866666666666667 -1.466666666666667 0  -1.733333333333333 -1.466666666666667 0  -1.6 -1.466666666666667 0  -1.466666666666667 -1.466666666666667 0  -1.333333333333333 -1.466666666666667 0  -1.2 -1.466666666666667 0  -1.066666666666667 -1.466666666666667 0  -0.9333333333333333 -1.466666666666667 0  -0.8 -1.466666666666667 0  -0.6666666666666667 -1.466666666666667 0  -0.5333333333333334 -1.466666666666667 0  -0.3999999999999999 -1.466666666666667 0  -0.2666666666666666 -1.466666666666667 0  -0.1333333333333333 -1.466666666666667 0  0 -1.466666666666667 0  0.1333333333333333 -1.466666666666667 0  0.2666666666666666 -1.466666666666667 0  0.3999999999999999 -1.466666666666667 0  0.5333333333333332 -1.466666666666667 0  0.6666666666666665 -1.466666666666667 0  0.7999999999999998 -1.466666666666667 0  0.9333333333333331 -1.466666666666667 0  1.066666666666667 -1.466666666666667 0  1.2 -1.466666666666667 0  1.333333333333333 -1.466666666666667 0  1.466666666666667 -1.466666666666667 0  1.6 -1.466666666666667 0  1.733333333333333 -1.466666666666667 0  1.866666666666667 -1.466666666666667 0  2 -1.466666666666667 0  -2 -1.333333333333333 0  -1.866666666666667 -1.333333333333333 0  -1.733333333333333 -1.333333333333333 0  -1.6 -1.333333333333333 0  -1.466666666666667 -1.333333333333333 0  -1.333333333333333 -1.333333333333333 0  -1.2 -1.333333333333333 0  -1.066666666666667 -1.333333333333333 0  -0.9333333333333333 -1.333333333333333 0  -0.8 -1.333333333333333 0  -0.6666666666666667 -1.333333333333333 0  -0.5333333333333334 -1.333333333333333 0  -0.3999999999999999 -1.333333333333333 0  -0.2666666666666666 -1.333333333333333 0  -0.1333333333333333 -1.333333333333333 0  0 -1.333333333333333 0  0.1333333333333333 -1.333333333333333 0  0.2666666666666666 -1.333333333333333 0  0.3999999999999999 -1.333333333333333 0  0.5333333333333332 -1.333333333333333 0  0.6666666666666665 -1.333333333333333 0  0.7999999999999998 -1.333333333333333 0  0.9333333333333331 -1.333333333333333 0  1.066666666666667 -1.333333333333333 0  1.2 -1.333333333333333 0  1.333333333333333 -1.333333333333333 0  1.466666666666667 -1.333333333333333 0  1.6 -1.333333333333333 0  1.733333333333333 -1.333333333333333 0  1.866666666666667 -1.333333333333333 0  2 -1.333333333333333 0  -2 -1.2 0  -1.866666666666667 -1.2 0  -1.733333333333333 -1.2 0  -1.6 -1.2 0  -1.466666666666667 -1.2 0  -1.333333333333333 -1.2 0  -1.2 -1.2 0  -1.066666666666667 -1.2 0  -0.9333333333333333 -1.2 0  -0.8 -1.2 0  -0.6666666666666667 -1.2 0  -0.5333333333333334 -1.2 0  -0.3999999999999999 -1.2 0  -0.2666666666666666 -1.2 0  -0.1333333333333333 -1.2 0  0 -1.2 0  0.1333333333333333 -1.2 0  0.2666666666666666 -1.2 0  0.3999999999999999 -1.2 0  0.5333333333333332 -1.2 0  0.6666666666666665 -1.2 0  0.7999999999999998 -1.2 0  0.9333333333333331 -1.2 0  1.066666666666667 -1.2 0  1.2 -1.2 0  1.333333333333333 -1.2 0  1.466666666666667 -1.2 0  1.6 -1.2 0  1.733333333333333 -1.2 0  1.866666666666667 -1.2 0  2 -1.2 0  -2 -1.066666666666667 0  -1.866666666666667 -1.066666666666667 0  -1.733333333333333 -1.066666666666667 0  -1.6 -1.066666666666667 0  -1.466666666666667 -1.066666666666667 0  -1.333333333333333 -1.066666666666667 0  -1.2 -1.066666666666667 0  -1.066666666666667 -1.066666666666667 0  -0.9333333333333333 -1.066666666666667 0  -0.8 -1.066666666666667 0  -0.6666666666666667 -1.066666666666667 0  -0.5333333333333334 -1.066666666666667 0  -0.3999999999999999 -1.066666666666667 0  -0.2666666666666666 -1.066666666666667 0  -0.1333333333333333 -1.066666666666667 0  0 -1.066666666666667 0  0.1333333333333333 -1.066666666666667 0  0.2666666666666666 -1.066666666666667 0  0.3999999999999999 -1.066666666666667 0  0.5333333333333332 -1.066666666666667 0  0.6666666666666665 -1.066666666666667 0  0.7999999999999998 -1.066666666666667 0  0.9333333333333331 -1.066666666666667 0  1.066666666666667 -1.066666666666667 0  1.2 -1.066666666666667 0  1.333333333333333 -1.066666666666667 0  1.466666666666667 -1.066666666666667 0  1.6 -1.066666666666667 0  1.733333333333333 -1.066666666666667 0  1.866666666666667 -1.066666666666667 0  2 -1.066666666666667 0  -2 -0.9333333333333333 0  -1.866666666666667 -0.9333333333333333 0  -1.733333333333333 -0.9333333333333333 0  -1.6 -0.9333333333333333 0  -1.466666666666667 -0.9333333333333333 0  -1.333333333333333 -0.9333333333333333 0  -1.2 -0.9333333333333333 0  -1.066666666666667 -0.9333333333333333 0  -0.9333333333333333 -0.9333333333333333 0  -0.8 -0.9333333333333333 0  -0.6666666666666667 -0.9333333333333333 0  -0.5333333333333334 -0.9333333333333333 0  -0.3999999999999999 -0.9333333333333333 0  -0.2666666666666666 -0.9333333333333333 0  -0.1333333333333333 -0.9333333333333333 0  0 -0.9333333333333333 0  0.1333333333333333 -0.9333333333333333 0  0.2666666666666666 -0.9333333333333333 0  0.3999999999999999 -0.9333333333333333 0  0.5333333333333332 -0.9333333333333333 0  0.6666666666666665 -0.9333333333333333 0  0.7999999999999998 -0.9333333333333333 0  0.9333333333333331 -0.9333333333333333 0  1.066666666666667 -0.9333333333333333 0  1.2 -0.9333333333333333 0  1.333333333333333 -0.9333333333333333 0  1.466666666666667 -0.9333333333333333 0  1.6 -0.9333333333333333 0  1.733333333333333 -0.9333333333333333 0  1.866666666666667 -0.9333333333333333 0  2 -0.9333333333333333 0  -2 -0.8 0  -1.866666666666667 -0.8 0  -1.733333333333333 -0.8 0  -1.6 -0.8 0  -1.466666666666667 -0.8 0  -1.333333333333333 -0.8 0  -1.2 -0.8 0  -1.066666666666667 -0.8 0  -0.9333333333333333 -0.8 0  -0.8 -0.8 0  -0.6666666666666667 -0.8 0  -0.5333333333333334 -0.8 0  -0.3999999999999999 -0.8 0  -0.2666666666666666 -0.8 0  -0.1333333333333333 -0.8 0  0 -0.8 0  0.1333333333333333 -0.8 0  0.2666666666666666 -0.8 0  0.3999999999999999 -0.8 0  0.5333333333333332 -0.8 0  0.6666666666666665 -0.8 0  0.7999999999999998 -0.8 0  0.9333333333333331 -0.8 0  1.066666666666667 -0.8 0  1.2 -0.8 0  1.333333333333333 -0.8 0  1.466666666666667 -0.8 0  1.6 -0.8 0  1.733333333333333 -0.8 0  1.866666666666667 -0.8 0  2 -0.8 0  -2 -0.6666666666666667 0  -1.866666666666667 -0.
[...]
<PointData  Scalars="f_12"> 
<DataArray  type="Float64"  Name="f_12"  format="ascii">0.0000000000000000e+00  0.0000000000000000e+00  0.0000000000000000e+00  0.0000000000000000e+00  0.0000000000000000e+00  0.0000000000000000e+00  0.0000000000000000e+00  0.0000000000000000e+00  0.0000000000000000e+00  0.0000000000000000e+00  0.0000000000000000e+00  0.0000000000000000e+00  0.0000000000000000e+00  0.0000000000000000e+00  0.0000000000000000e+00  0.0000000000000000e+00  0.0000000000000000e+00  0.0000000000000000e+00  0.0000000000000000e+00  0.0000000000000000e+00  0.0000000000000000e+00  0.0000000000000000e+00  0.0000000000000000e+00  0.0000000000000000e+00  0.0000000000000000e+00  0.0000000000000000e+00  0.0000000000000000e+00  0.0000000000000000e+00  0.0000000000000000e+00  0.0000000000000000e+00  0.0000000000000000e+00  0.0000000000000000e+00  2.2576229103556190e-04  4.6825158591444688e-04  7.3995696838074837e-04  1.0519070205556843e-03  1.4121133695941855e-03  1.8240581171063142e-03  2.2852465669609408e-03  2.7860550071642834e-03  3.3092116402615311e-03  3.8302587072405821e-03  4.3192338353082137e-03  4.7435783079256503e-03  5.0719719617653711e-03  5.2784951687942184e-03  5.3463341478871395e-03  5.2702606761998493e-03  5.0573515195390635e-03  4.7258060834016128e-03  4.3021512087421691e-03  3.8174557976943177e-03  3.3033226083923083e-03  2.7883608339202767e-03  2.2956219775531759e-03  1.8411935555505408e-03  1.4338807471908799e-03  1.0757259224398845e-03  7.6303972065859256e-04  4.8762840848788917e-04  2.3795645560979888e-04  0.0000000000000000e+00  0.0000000000000000e+00  4.6825158591444688e-04  9.7007650610992312e-04  1.5327711922425572e-03  2.1799408789369970e-03  2.9287369778271169e-03  3.7868105999491297e-03  4.7492733459782764e-03  5.7962182904960982e-03  6.8915457602190438e-03  7.9838571648594356e-03  9.0099499434465567e-03  9.9009552940553750e-03  1.0590494148327571e-02  1.1023571665029418e-02  1.1164520004711102e-02  1.1002321414092693e-02  1.0552147744458696e-02  9.8528077595358438e-03  8.9607319294326380e-03  7.9418498264429618e-03  6.8630241475146903e-03  5.7845575010007705e-03  4.7547989195508228e-03  3.8072479308488725e-03  2.9599835132931305e-03  2.2168641624948377e-03  1.5697945769764243e-03  1.0014009695880816e-03  4.8762840848788933e-04  0.0000000000000000e+00  0.0000000000000000e+00  7.3995696838074826e-04  1.5327711922425574e-03  2.4234675914201085e-03  3.4509126246023460e-03  4.6435914641769025e-03  6.0147457958064270e-03  7.5573811841653186e-03  9.2400790715681889e-03  1.1004872404597611e-02  1.2768493980138219e-02  1.4427942314629901e-02  1.5870495802878224e-02  1.6987177693048396e-02  1.7687545454164986e-02  1.7912954167984146e-02  1.7645459044571179e-02  1.6910371583046129e-02  1.5771945008992812e-02  1.4323270651685139e-02  1.2672700831391380e-02  1.0929623214868386e-02  9.1921335480228700e-03  7.5382978965688619e-03  6.0216166964383363e-03  4.6703432029706312e-03  3.4896863240526915e-03  2.4657030103474296e-03  1.5697945769764250e-03  7.6303972065859310e-04  0.0000000000000000e+00  0.0000000000000000e+00  1.0519070205556838e-03  2.1799408789369965e-03  3.4509126246023468e-03  4.9227622282748901e-03  6.6385303550236226e-03  8.6192252923309731e-03  1.0856308869170975e-02  1.3305200361739005e-02  1.5881726378460501e-02  1.8463568682175715e-02  2.0898249682712297e-02  2.3017969288108880e-02  2.4659858111800256e-02  2.5688424674680788e-02  2.6015796560414882e-02  2.5615336773785656e-02  2.4525525939507867e-02  2.2843292190752075e-02  2.0708494828767070e-02  1.8283192685026574e-02  1.5730092384635217e-02  1.3194088302312458e-02  1.0789427439146100e-02  8.5933348214482039e-03  6.6454593432374101e-03  4.9515762802785270e-03  3.4896863240526936e-03  2.2168641624948399e-03  1.0757259224398856e-03  0.0000000000000000e+00  0.0000000000000000e+00  1.4121133695941842e-03  2.9287369778271156e-03  4.6435914641769008e-03  6.6385303550236235e-03  8.9753262558732796e-03  1.1685690992354197e-02  1.4760491683957185e-02  1.8140134956146071e-02  2.1708918084734463e-02  2.5296406711201529e-02  2.8688230101401618e-02  3.1646935035037578e-02  3.3940958591129299e-02  3.5377078346204710e-02  3.5829864925051434e-02  3.5261560236531091e-02  3.3727724875569839e-02  3.1367427762528800e-02  2.8380542175705167e-02  2.4997582219725249e-02  2.1448606464201849e-02  1.7936918331900090e-02  1.4621171826719698e-02  1.1606941144453741e-02  8.9466503885977221e-03  6.6454593432374153e-03  4.6703432029706372e-03  2.9599835132931344e-03  1.4338807471908821e-03  0.0000000000000000e+00  0.0000000000000000e+00  1.8240581171063109e-03  3.7868105999491267e-03  6.0147457958064235e-03  8.6192252923309697e-03  1.1685690992354190e-02  1.5260186933078745e-02  1.9334419572159332e-02  2.3832025639409733e-02  2.8599955074619571e-02  3.3409361226682595e-02  3.7969569930177013e-02  4.1956301178043158e-02  4.5051647378892855e-02  4.6989370801326688e-02  4.7596324149665109e-02  4.6820534095143584e-02  4.4739196559776935e-02  4.1544788323918808e-02  3.7513004166905478e-02  3.2960370948410395e-02  2.8200904258517134e-02  2.3509919627687149e-02  1.9099962781149386e-02  1.5110123921928039e-02  1.1606941144453745e-02  8.5933348214482109e-03  6.0216166964383398e-03  3.8072479308488760e-03  1.8411935555505427e-03  0.0000000000000000e+00  0.0000000000000000e+00  2.2852465669609386e-03  4.7492733459782738e-03  7.5573811841653160e-03  1.0856308869170968e-02  1.4760491683957183e-02  1.9334419572159343e-02  2.4572590870160376e-02  3.0380547561591371e-02  3.6562260081423444e-02  4.2819949273663803e-02  4.8771486467036058e-02  5.3987346314782900e-02  5.8044045996494265e-02  6.0585444155134852e-02  6.1379257379450457e-02  6.0355606177591510e-02  5.7618087332079009e-02  5.3424798328547567e-02  4.8144486347869206e-02  4.2198800903897792e-02  3.6003677163743614e-02  2.9920995564006812e-02  2.4227150509737526e-02  1.9099962781149376e-02  1.4621171826719700e-02  1.0789427439146102e-02  7.5382978965688680e-03  4.7547989195508246e-03  2.2956219775531772e-03  0.0000000000000000e+00  0.0000000000000000e+00  2.7860550071642813e-03  5.7962182904960939e-03  9.2400790715681871e-03  1.3305200361739000e-02  1.8140134956146064e-02  2.3832025639409730e-02  3.0380547561591371e-02  3.7672591021161536e-02  4.5464545633974209e-02  5.3380330110674556e-02  6.0932291909661755e-02  6.7568071032670332e-02  7.2739835499844183e-02  7.5984718642235119e-02  7.6999642446021768e-02  7.5692720892336640e-02  7.2198265150476129e-02  6.6851776535988297e-02  6.0131871345603841e-02  5.2583984952610970e-02  4.4743413357586324e-02  3.7072558113748405e-02  2.9920995564006809e-02  2.3509919627687136e-02  1.7936918331900087e-02  1.3194088302312452e-02  9.1921335480228735e-03  5.7845575010007696e-03  2.7883608339202772e-03  0.0000000000000000e+00  0.0000000000000000e+00  3.3092116402615285e-03  6.8915457602190412e-03  1.1004872404597603e-02  1.5881726378460487e-02  2.1708918084734453e-02  2.8599955074619571e-02  3.6562260081423437e-02  4.5464545633974202e-02  5.5012970633183222e-02  6.4746582047082335e-02  7.4061531042254686e-02  8.2268612620154891e-02  8.8680126282084965e-02  9.2712100506434511e-02  9.3980276003835350e-02  9.2366608478672618e-02  8.8039130927627787e-02  8.1420222408008641e-02  7.3112237099070457e-02  6.3799873666287851e-02  5.4152179091384707e-02  4.4743413357586408e-02  3.6003677163743662e-02  2.8200904258517158e-02  2.1448606464201863e-02  1.5730092384635238e-02  1.0929623214868405e-02  6.8630241475146989e-03  3.3033226083923131e-03  0.0000000000000000e+00  0.0000000000000000e+00  3.8302587072405786e-03  7.9838571648594304e-03  1.2768493980138211e-02  1.8463568682175701e-02  2.5296406711201501e-02  3.3409361226682588e-02  4.2819949273663803e-02  5.3380330110674577e-02  6.4746582047082377e-02  7.6370815172682224e-02  8.7528246759002309e-02  9.7385538015087661e-02  1.0510616513503654e-01  1.0997601941779830e-01  1.1152247848872253e-01  1.0959769841230835e-01  1.0440421631667894e-01  9.6456264649582235e-02  8.6487856646096484e-02  7.5332002496988570e-02  6.3799873666287921e-02  5.2583984952611129e-02  4.2198800903897882e-02  3.2960370948410464e-02  2.4997582219725291e-02  1.8283192685026612e-02  1.2672700831391411e-02  7.9418498264429808e-03  3.8174557976943277e-03  0.0000000000000000e+00  0.0000000000000000e+00  4.3192338353082102e-03  9.0099499434465533e-03  1.4427942314629903e-02  2.0898249682712283e-02  2.8688230101401594e-02  3.7969569930177013e-02  4.8771486467036058e-02  6.0932291909661762e-02  7.4061531042254644e-02  8.7528246759002254e-02  1.0049021701232103e-01  1.1197239284561350e-01  1.2099031756366432e-01  1.2669905489582650e-01  1.2853574360131664e-01  1.2632035684785731e-01  1.2028772361388411e-01  1.1104230533106924e-01  9.9448781013031284e-02  8.6487856646096567e-02  7.3112237099070596e-02  6.0131871345604049e-02  4.8144486347869338e-02  3.7513004166905603e-02  2.8380542175705251e-02  2.0708494828767136e-02  1.4323270651685181e-02  8.9607319294326623e-03  4.3021512087421830e-03  0.0000000000000000e+00  0.0000000000000000e+00  4.7435783079256451e-03  9.9009552940553629e-03  1.5870495802878210e-02  2.3017969288108855e-02  3.1646935035037571e-02  4.1956301178043137e-02  5.3987346314782886e-02  6.7568071032670277e-02  8.2268612620154807e-02  9.7385538015087550e-02  1.1197239284561340e-01  1.2492666252765339e-01  1.3512916840425396e-01  1.4161420575108827e-01  1.4373393809178106e-01  1.4127586444865056e-01  1.3450153331284323e-01  1.2409594119762225e-01  1.1104230533106926e-01  9.6456264649582263e-02  8.1420222408008752e-02  6.6851776535988505e-02  5.3424798328547726e-02  4.1544788323918912e-02  3.1367427762528884e-02  2.2843292190752134e-02  1.5771945008992847e-02  9.8528077595358664e-03  4.7258060834016258e-03  0.0000000000000000e+00  0.0000000000000000e+00  5.0719719617653642e-03  1.0590494148327559e-02  1.6987177693048375e-02  2.4659858111800218e-02  3.3940958591129257e-02  4.5051647378892813e-02  5.8044045996494230e-02  7.2739835499844141e-02  8.8680126282084867e-02  1.0510616513503639e-01  1.2099031756366421e-01  1.3512916840425393e-01  1.4629519596427518e-01  1.5342379067046397e-01  1.5579556763964261e-01  1.5316808177420546e-01  1.4582091148288562e-01  1.3450153331284315e-01  1.2028772361388389e-01  1.0440421631667889e-01  8.8039130927627857e-02  7.2198265150476323e-02  5.7618087332079085e-02  4.4739196559776991e-02  3.3727724875569888e-02  2.4525525939507901e-02  1.6910371583046157e-02  1.0552147744458713e-02  5.0573515195390731e-03  0.0000000000000000e+00  0.0000000000000000e+00  5.2784951687942097e-03  1.1023571665029399e-02  1.7687545454164962e-02  2.5688424674680757e-02  3.5377078346204675e-02  4.6989370801326660e-02  6.0585444155134810e-02  7.5984718642235077e-02  9.2712100506434469e-02  1.0997601941779819e-01  1.2669905489582642e-01  1.4161420575108830e-01  1.5342379067046394e-01  1.6099706554073875e-01  1.6356441776104680e-01  1.6085918759651940e-01  1.5316808177420538e-01  1.4127586444865042e-01  1.2632035684785722e-01  1.0959769841230828e-01  9.2366608478672674e-02  7.5692720892336807e-02  6.0355606177591586e-02  4.6820534095143619e-02  3.5261560236531132e-02  2.5615336773785680e-02  1.7645459044571200e-02  1.1002321414092705e-02  5.2702606761998562e-03  0.0000000000000000e+00  0.0000000000000000e+00  5.3463341478871291e-03  1.1164520004711074e-02  1.7912954167984118e-02  2.6015796560414844e-02  3.5829864925051406e-02  4.7596324149665081e-02  6.1379257379450387e-02  7.6999642446021727e-02  9.3980276003835267e-02  1.1152247848872243e-01  1.2853574360131653e-01  1.4373393809178103e-01  1.5579556763964258e-01  1.6356441776104674e-01  1.6624807975199862e-01  1.6356441776104683e-01  1.5579556763964258e-01  1.4373393809178087e-01  1.2853574360131650e-01  1.1152247848872240e-01  9.3980276003835406e-02  7.6999642446021921e-02  6.1379257379450526e-02  4.7596324149665137e-02  3.5829864925051441e-02  2.6015796560414899e-02  1.7912954167984149e-02  1.1164520004711102e-02  5.3463341478871430e-03  0.0000000000000000e+00  0.0000000000000000e+00  5.2702606761998397e-03  1.1002321414092674e-02  1.7645459044571158e-02  2.5615336773785635e-02  3.5261560236531084e-02  4.6820534095143557e-02  6.0355606177591448e-02  7.5692720892336557e-02  9.2366608478672535e-02  1.0959769841230822e-01  1.2632035684785720e-01  1.4127586444865051e-01  1.5316808177420541e-01  1.6085918759651929e-01  1.6356441776104672e-01  1.6099706554073875e-01  1.5342379067046391e-01  1.4161420575108818e-01  1.2669905489582631e-01  1.0997601941779819e-01  9.2712100506434539e-02  7.5984718642235244e-02  6.0585444155134914e-02  4.6989370801326709e-02  3.5377078346204717e-02  2.5688424674680788e-02  1.7687545454164989e-02  1.1023571665029420e-02  5.2784951687942210e-03  0.0000000000000000e+00  0.0000000000000000e+00  5.0573515195390549e-03  1.0552147744458684e-02  1.6910371583046115e-02  2.4525525939507846e-02  3.3727724875569812e-02  4.4739196559776900e-02  5.7618087332078925e-02  7.2198265150476074e-02  8.8039130927627704e-02  1.0440421631667884e-01  1.2028772361388396e-01  1.3450153331284320e-01  1.4582091148288548e-01  1.5316808177420529e-01  1.5579556763964250e-01  1.5342379067046394e-01  1.4629519596427504e-01  1.3512916840425376e-01  1.2099031756366409e-01  1.0510616513503643e-01  8.8680126282084937e-02  7.2739835499844252e-02  5.8044045996494292e-02  4.5051647378892848e-02  3.3940958591129292e-02  2.4659858111800249e-02  1.6987177693048399e-02  1.0590494148327573e-02  5.0719719617653720e-03  0.0000000000000000e+00  0.0000000000000000e+00  4.7258060834016067e-03  9.8528077595358334e-03  1.5771945008992799e-02  2.2843292190752054e-02  3.1367427762528780e-02  4.1544788323918794e-02  5.3424798328547539e-02  6.6851776535988255e-02  8.1420222408008572e-02  9.6456264649582138e-02  1.1104230533106925e-01  1.2409594119762227e-01  1.3450153331284317e-01  1.4127586444865040e-01  1.4373393809178087e-01  1.4161420575108813e-01  1.3512916840425376e-01  1.2492666252765311e-01  1.1197239284561322e-01  9.7385538015087425e-02  8.2268612620154807e-02  6.7568071032670346e-02  5.3987346314782907e-02  4.1956301178043130e-02  3.1646935035037564e-02  2.3017969288108855e-02  1.5870495802878217e-02  9.9009552940553681e-03  4.7435783079256477e-03  0.0000000000000000e+00  0.0000000000000000e+00  4.3021512087421639e-03  8.9607319294326259e-03  1.4323270651685122e-02  2.0708494828767045e-02  2.8380542175705140e-02  3.7513004166905485e-02  4.8144486347869185e-02  6.0131871345603820e-02  7.3112237099070387e-02  8.6487856646096414e-02  9.9448781013031229e-02  1.1104230533106926e-01  1.2028772361388389e-01  1.2632035684785711e-01  1.2853574360131645e-01  1.2669905489582628e-01  1.2099031756366406e-01  1.1197239284561319e-01  1.0049021701232078e-01  8.7528246759002101e-02  7.4061531042254602e-02  6.0932291909661783e-02  4.8771486467036031e-02  3.7969569930176993e-02  2.8688230101401598e-02  2.0898249682712273e-02  1.4427942314629889e-02  9.0099499434465533e-03  4.3192338353082111e-03  0.0000000000000000e+00  0.0000000000000000e+00  3.8174557976943138e-03  7.9418498264429531e-03  1.2672700831391369e-02  1.8283192685026553e-02  2.4997582219725215e-02  3.2960370948410381e-02  4.2198800903897743e-02  5.2583984952610921e-02  6.3799873666287754e-02  7.5332002496988487e-02  8.6487856646096498e-02  9.6456264649582263e-02  1.0440421631667890e-01  1.0959769841230824e-01  1.1152247848872239e-01  1.0997601941779814e-01  1.0510616513503633e-01  9.7385538015087383e-02  8.7528246759002074e-02  7.6370815172682113e-02  6.4746582047082279e-02  5.3380330110674591e-02  4.2819949273663810e-02  3.3409361226682574e-02  2.5296406711201515e-02  1.8463568682175704e-02  1.2768493980138212e-02  7.9838571648594356e-03  3.8302587072405808e-03  0.0000000000000000e+00  0.0000000000000000e+00  3.3033226083923040e-03  6.8630241475146824e-03  1.0929623214868376e-02  1.5730092384635196e-02  2.1448606464201818e-02  2.8200904258517106e-02  3.6003677163743565e-02  4.4743413357586262e-02  5.4152179091384589e-02  6.3799873666287810e-02  7.3112237099070498e-02  8.1420222408008724e-02  8.8039130927627843e-02  9.2366608478672618e-02  9.3980276003835309e-02  9.2712100506434456e-02  8.8680126282084840e-02  8.2268612620154710e-02  7.4061531042254519e-02  6.4746582047082238e-02  5.5012970633183202e-02  4.5464545633974250e-02  3.6562260081423457e-02  2.8599955074619560e-02  2.1708918084734460e-02  1.5881726378460498e-02  1.1004872404597611e-02  6.8915457602190464e-03  3.3092116402615333e-03  0.0000000000000000e+00  0.0000000000000000e+00  2.7883608339202711e-03  5.7845575010007600e-03  9.1921335480228579e-03  1.3194088302312430e-02  1.7936918331900059e-02  2.3509919627687104e-02  2.9920995564006746e-02  3.7072558113748287e-02  4.4743413357586269e-02  5.2583984952610997e-02  6.0131871345603931e-02  6.6851776535988394e-02  7.2198265150476226e-02  7.5692720892336696e-02  7.6999642446021796e-02  7.5984718642235105e-02  7.2739835499844127e-02  6.7568071032670235e-02  6.0932291909661679e-02  5.3380330110674529e-02  4.5464545633974215e-02  3.7672591021161626e-02  3.0380547561591399e-02  2.3832025639409747e-02  1.8140134956146078e-02  1.3305200361739017e-02  9.2400790715682045e-03  5.7962182904961060e-03  2.7860550071642869e-03  0.0000000000000000e+00  0.0000000000000000e+00  2.2956219775531711e-03  4.7547989195508115e-03  7.5382978965688463e-03  1.0789427439146074e-02  1.4621171826719669e-02  1.9099962781149338e-02  2.4227150509737463e-02  2.9920995564006715e-02  3.6003677163743524e-02  4.2198800903897771e-02  4.8144486347869241e-02  5.3424798328547615e-02  5.7618087332078995e-02  6.0355606177591482e-02  6.1379257379450415e-02  6.0585444155134768e-02  5.8044045996494188e-02  5.3987346314782789e-02  4.8771486467035947e-02  4.2819949273663740e-02  3.6562260081423416e-02  3.0380547561591389e-02  2.4572590870160373e-02  1.9334419572159329e-02  1.4760491683957180e-02  1.0856308869170973e-02  7.5573811841653229e-03  4.7492733459782782e-03  2.2852465669609412e-03  0.0000000000000000e+00  0.0000000000000000e+00  1.8411935555505373e-03  3.8072479308488660e-03  6.0216166964383241e-03  8.5933348214481883e-03  1.1606941144453719e-02  1.5110123921928009e-02  1.9099962781149331e-02  2.3509919627687070e-02  2.8200904258517078e-02  3.2960370948410381e-02  3.7513004166905513e-02  4.1544788323918835e-02  4.4739196559776935e-02  4.6820534095143543e-02  4.7596324149665060e-02  4.6989370801326612e-02  4.5051647378892778e-02  4.1956301178043054e-02  3.7969569930176916e-02  3.3409361226682519e-02  2.8599955074619526e-02  2.3832025639409733e-02  1.9334419572159332e-02  1.5260186933078729e-02  1.1685690992354187e-02  8.6192252923309679e-03  6.0147457958064253e-03  3.7868105999491284e-03  1.8240581171063124e-03  0.0000000000000000e+00  0.0000000000000000e+00  1.4338807471908775e-03  2.9599835132931257e-03  4.6703432029706251e-03  6.6454593432373988e-03  8.9466503885977031e-03  1.1606941144453721e-02  1.4621171826719664e-02  1.7936918331900042e-02  2.1448606464201811e-02  2.4997582219725235e-02  2.8380542175705178e-02  3.1367427762528828e-02  3.3727724875569826e-02  3.5261560236531056e-02  3.5829864925051400e-02  3.5377078346204668e-02  3.3940958591129229e-02  3.1646935035037516e-02  2.8688230101401552e-02  2.5296406711201484e-02  2.1708918084734442e-02  1.8140134956146074e-02  1.4760491683957185e-02  1.1685690992354194e-02  8.9753262558732762e-03  6.6385303550236217e-03  4.6435914641769016e-03  2.9287369778271161e-03  1.4121133695941847e-03  0.0000000000000000e+00  0.0000000000000000e+00  1.0757259224398825e-03  2.2168641624948347e-03  3.4896863240526863e-03  4.9515762802785183e-03  6.6454593432374023e-03  8.5933348214481935e-03  1.0789427439146076e-02  1.3194088302312421e-02  1.5730092384635200e-02  1.8283192685026567e-02  2.0708494828767087e-02  2.2843292190752092e-02  2.4525525939507860e-02  2.5615336773785639e-02  2.6015796560414861e-02  2.5688424674680757e-02  2.4659858111800208e-02  2.3017969288108821e-02  2.0898249682712249e-02  1.8463568682175684e-02  1.5881726378460494e-02  1.3305200361739019e-02  1.0856308869170984e