<?xml version="1.0"?>
<VTKFile type="UnstructuredGrid"  version="0.1"  >
<UnstructuredGrid>
<Piece  NumberOfPoints="961" NumberOfCells="1800">
<Points>
<DataArray  type="Float64"  NumberOfComponents="3"  format="ascii">-2 -2 0  -1.866666666666667 -2 0  -1.733333333333333 -2 0  -1.6 -2 0  -1.466666666666667 -2 0  -1.333333333333333 -2 0  -1.2 -2 0  -1.066666666666667 -2 0  -0.9333333333333333 -2 0  -0.8 -2 0  -0.6666666666666667 -2 0  -0.5333333333333334 -2 0  -0.3999999999999999 -2 0  -0.2666666666666666 -2 0  -0.1333333333333333 -2 0  0 -2 0  0.1333333333333333 -2 0  0.2666666666666666 -2 0  0.3999999999999999 -2 0  0.5333333333333332 -2 0  0.6666666666666665 -2 0  0.7999999999999998 -2 0  0.9333333333333331 -2 0  1.066666666666667 -2 0  1.2 -2 0  1.333333333333333 -2 0  1.466666666666667 -2 0  1.6 -2 0  1.733333333333333 -2 0  1.866666666666667 -2 0  2 -2 0  -2 -1.866666666666667 0  -1.866666666666667 -1.866666666666667 0  -1.733333333333333 -1.866666666666667 0  -1.6 -1.866666666666667 0  -1.466666666666667 -1.866666666666667 0  -1.333333333333333 -1.866666666666667 0  -1.2 -1.866666666666667 0  -1.066666666666667 -1.866666666666667 0  -0.9333333333333333 -1.866666666666667 0  -0.8 -1.866666666666667 0  -0.6666666666666667 -1.866666666666667 0  -0.5333333333333334 -1.866666666666667 0  -0.3999999999999999 -1.866666666666667 0  -0.2666666666666666 -1.866666666666667 0  -0.1333333333333333 -1.866666666666667 0  0 -1.866666666666667 0  0.1333333333333333 -1.866666666666667 0  0.2666666666666666 -1.866666666666667 0  0.3999999999999999 -1.866666666666667 0  0.5333333333333332 -1.866666666666667 0  0.6666666666666665 -1.866666666666667 0  0.7999999999999998 -1.866666666666667 0  0.9333333333333331 -1.866666666666667 0  1.066666666666667 -1.866666666666667 0  1.2 -1.866666666666667 0  1.333333333333333 -1.866666666666667 0  1.466666666666667 -1.866666666666667 0  1.6 -1.866666666666667 0  1.733333333333333 -1.866666666666667 0  1.866666666666667 -1.866666666666667 0  2 -1.866666666666667 0  -2 -1.733333333333333 0  -1.866666666666667 -1.733333333333333 0  -1.733333333333333 -1.733333333333333 0  -1.6 -1.733333333333333 0  -1.466666666666667 -1.733333333333333 0  -1.333333333333333 -1.733333333333333 0  -1.2 -1.733333333333333 0  -1.066666666666667 -1.733333333333333 0  -0.9333333333333333 -1.733333333333333 0  -0.8 -1.733333333333333 0  -0.6666666666666667 -1.733333333333333 0  -0.5333333333333334 -1.733333333333333 0  -0.3999999999999999 -1.733333333333333 0  -0.2666666666666666 -1.733333333333333 0  -0.1333333333333333 -1.733333333333333 0  0 -1.733333333333333 0  0.1333333333333333 -1.733333333333333 0  0.2666666666666666 -1.733333333333333 0  0.3999999999999999 -1.733333333333333 0  0.5333333333333332 -1.733333333333333 0  0.6666666666666665 -1.733333333333333 0  0.7999999999999998 -1.733333333333333 0  0.9333333333333331 -1.733333333333333 0  1.066666666666667 -1.733333333333333 0  1.2 -1.733333333333333 0  1.333333333333333 -1.733333333333333 0  1.466666666666667 -1.733333333333333 0  1.6 -1.733333333333333 0  1.733333333333333 -1.733333333333333 0  1.866666666666667 -1.733333333333333 0  2 -1.733333333333333 0  -2 -1.6 0  -1.866666666666667 -1.6 0  -1.733333333333333 -1.6 0  -1.6 -1.6 0  -1.466666666666667 -1.6 0  -1.333333333333333 -1.6 0  -1.2 -1.6 0  -1.066666666666667 -1.6 0  -0.9333333333333333 -1.6 0  -0.8 -1.6 0  -0.6666666666666667 -1.6 0  -0.5333333333333334 -1.6 0  -0.3999999999999999 -1.6 0  -0.2666666666666666 -1.6 0  -0.1333333333333333 -1.6 0  0 -1.6 0  0.1333333333333333 -1.6 0  0.2666666666666666 -1.6 0  0.3999999999999999 -1.6 0  0.5333333333333332 -1.6 0  0.6666666666666665 -1.6 0  0.7999999999999998 -1.6 0  0.9333333333333331 -1.6 0  1.066666666666667 -1.6 0  1.2 -1.6 0  1.333333333333333 -1.6 0  1.466666666666667 -1.6 0  1.6 -1.6 0  1.733333333333333 -1.6 0  1.866666666666667 -1.6 0  2 -1.6 0  -2 -1.466666666666667 0  -1.866666666666667 -1.466666666666667 0  -1.733333333333333 -1.466666666666667 0  -1.6 -1.466666666666667 0  -1.466666666666667 -1.466666666666667 0  -1.333333333333333 -1.466666666666667 0  -1.2 -1.466666666666667 0  -1.066666666666667 -1.466666666666667 0  -0.9333333333333333 -1.466666666666667 0  -0.8 -1.466666666666667 0  -0.6666666666666667 -1.466666666666667 0  -0.5333333333333334 -1.466666666666667 0  -0.3999999999999999 -1.466666666666667 0  -0.2666666666666666 -1.466666666666667 0  -0.1333333333333333 -1.466666666666667 0  0 -1.466666666666667 0  0.1333333333333333 -1.466666666666667 0  0.2666666666666666 -1.466666666666667 0  0.3999999999999999 -1.466666666666667 0  0.5333333333333332 -1.466666666666667 0  0.6666666666666665 -1.466666666666667 0  0.7999999999999998 -1.466666666666667 0  0.9333333333333331 -1.466666666666667 0  1.066666666666667 -1.466666666666667 0  1.2 -1.466666666666667 0  1.333333333333333 -1.466666666666667 0  1.466666666666667 -1.466666666666667 0  1.6 -1.466666666666667 0  1.733333333333333 -1.466666666666667 0  1.866666666666667 -1.466666666666667 0  2 -1.466666666666667 0  -2 -1.333333333333333 0  -1.866666666666667 -1.333333333333333 0  -1.733333333333333 -1.333333333333333 0  -1.6 -1.333333333333333 0  -1.466666666666667 -1.333333333333333 0  -1.333333333333333 -1.333333333333333 0  -1.2 -1.333333333333333 0  -1.066666666666667 -1.333333333333333 0  -0.9333333333333333 -1.333333333333333 0  -0.8 -1.333333333333333 0  -0.6666666666666667 -1.333333333333333 0  -0.5333333333333334 -1.333333333333333 0  -0.3999999999999999 -1.333333333333333 0  -0.2666666666666666 -1.333333333333333 0  -0.1333333333333333 -1.333333333333333 0  0 -1.333333333333333 0  0.1333333333333333 -1.333333333333333 0  0.2666666666666666 -1.333333333333333 0  0.3999999999999999 -1.333333333333333 0  0.5333333333333332 -1.333333333333333 0  0.6666666666666665 -1.333333333333333 0  0.7999999999999998 -1.333333333333333 0  0.9333333333333331 -1.333333333333333 0  1.066666666666667 -1.333333333333333 0  1.2 -1.333333333333333 0  1.333333333333333 -1.333333333333333 0  1.466666666666667 -1.333333333333333 0  1.6 -1.333333333333333 0  1.733333333333333 -1.333333333333333 0  1.866666666666667 -1.333333333333333 0  2 -1.333333333333333 0  -2 -1.2 0  -1.866666666666667 -1.2 0  -1.733333333333333 -1.2 0  -1.6 -1.2 0  -1.466666666666667 -1.2 0  -1.333333333333333 -1.2 0  -1.2 -1.2 0  -1.066666666666667 -1.2 0  -0.9333333333333333 -1.2 0  -0.8 -1.2 0  -0.6666666666666667 -1.2 0  -0.5333333333333334 -1.2 0  -0.3999999999999999 -1.2 0  -0.2666666666666666 -1.2 0  -0.1333333333333333 -1.2 0  0 -1.2 0  0.1333333333333333 -1.2 0  0.2666666666666666 -1.2 0  0.3999999999999999 -1.2 0  0.5333333333333332 -1.2 0  0.6666666666666665 -1.2 0  0.7999999999999998 -1.2 0  0.9333333333333331 -1.2 0  1.066666666666667 -1.2 0  1.2 -1.2 0  1.333333333333333 -1.2 0  1.466666666666667 -1.2 0  1.6 -1.2 0  1.733333333333333 -1.2 0  1.866666666666667 -1.2 0  2 -1.2 0  -2 -1.066666666666667 0  -1.866666666666667 -1.066666666666667 0  -1.733333333333333 -1.066666666666667 0  -1.6 -1.066666666666667 0  -1.466666666666667 -1.066666666666667 0  -1.333333333333333 -1.066666666666667 0  -1.2 -1.066666666666667 0  -1.066666666666667 -1.066666666666667 0  -0.9333333333333333 -1.066666666666667 0  -0.8 -1.066666666666667 0  -0.6666666666666667 -1.066666666666667 0  -0.5333333333333334 -1.066666666666667 0  -0.3999999999999999 -1.066666666666667 0  -0.2666666666666666 -1.066666666666667 0  -0.1333333333333333 -1.066666666666667 0  0 -1.066666666666667 0  0.1333333333333333 -1.066666666666667 0  0.2666666666666666 -1.066666666666667 0  0.3999999999999999 -1.066666666666667 0  0.5333333333333332 -1.066666666666667 0  0.6666666666666665 -1.066666666666667 0  0.7999999999999998 -1.066666666666667 0  0.9333333333333331 -1.066666666666667 0  1.066666666666667 -1.066666666666667 0  1.2 -1.066666666666667 0  1.333333333333333 -1.066666666666667 0  1.466666666666667 -1.066666666666667 0  1.6 -1.066666666666667 0  1.733333333333333 -1.066666666666667 0  1.866666666666667 -1.066666666666667 0  2 -1.066666666666667 0  -2 -0.9333333333333333 0  -1.866666666666667 -0.9333333333333333 0  -1.733333333333333 -0.9333333333333333 0  -1.6 -0.9333333333333333 0  -1.466666666666667 -0.9333333333333333 0  -1.333333333333333 -0.9333333333333333 0  -1.2 -0.9333333333333333 0  -1.066666666666667 -0.9333333333333333 0  -0.9333333333333333 -0.9333333333333333 0  -0.8 -0.9333333333333333 0  -0.6666666666666667 -0.9333333333333333 0  -0.5333333333333334 -0.9333333333333333 0  -0.3999999999999999 -0.9333333333333333 0  -0.2666666666666666 -0.9333333333333333 0  -0.1333333333333333 -0.9333333333333333 0  0 -0.9333333333333333 0  0.1333333333333333 -0.9333333333333333 0  0.2666666666666666 -0.9333333333333333 0  0.3999999999999999 -0.9333333333333333 0  0.5333333333333332 -0.9333333333333333 0  0.6666666666666665 -0.9333333333333333 0  0.7999999999999998 -0.9333333333333333 0  0.9333333333333331 -0.9333333333333333 0  1.066666666666667 -0.9333333333333333 0  1.2 -0.9333333333333333 0  1.333333333333333 -0.9333333333333333 0  1.466666666666667 -0.9333333333333333 0  1.6 -0.9333333333333333 0  1.733333333333333 -0.9333333333333333 0  1.866666666666667 -0.9333333333333333 0  2 -0.9333333333333333 0  -2 -0.8 0  -1.866666666666667 -0.8 0  -1.733333333333333 -0.8 0  -1.6 -0.8 0  -1.466666666666667 -0.8 0  -1.333333333333333 -0.8 0  -1.2 -0.8 0  -1.066666666666667 -0.8 0  -0.9333333333333333 -0.8 0  -0.8 -0.8 0  -0.6666666666666667 -0.8 0  -0.5333333333333334 -0.8 0  -0.3999999999999999 -0.8 0  -0.2666666666666666 -0.8 0  -0.1333333333333333 -0.8 0  0 -0.8 0  0.1333333333333333 -0.8 0  0.2666666666666666 -0.8 0  0.3999999999999999 -0.8 0  0.5333333333333332 -0.8 0  0.6666666666666665 -0.8 0  0.7999999999999998 -0.8 0  0.9333333333333331 -0.8 0  1.066666666666667 -0.8 0  1.2 -0.8 0  1.333333333333333 -0.8 0  1.466666666666667 -0.8 0  1.6 -0.8 0  1.733333333333333 -0.8 0  1.866666666666667 -0.8 0  2 -0.8 0  -2 -0.6666666666666667 0  -1.866666666666667 -0.
[...]
<PointData  Scalars="f_12"> 
<DataArray  type="Float64"  Name="f_12"  format="ascii">0.0000000000000000e+00  0.0000000000000000e+00  0.0000000000000000e+00  0.0000000000000000e+00  0.0000000000000000e+00  0.0000000000000000e+00  0.0000000000000000e+00  0.0000000000000000e+00  0.0000000000000000e+00  0.0000000000000000e+00  0.0000000000000000e+00  0.0000000000000000e+00  0.0000000000000000e+00  0.0000000000000000e+00  0.0000000000000000e+00  0.0000000000000000e+00  0.0000000000000000e+00  0.0000000000000000e+00  0.0000000000000000e+00  0.0000000000000000e+00  0.0000000000000000e+00  0.0000000000000000e+00  0.0000000000000000e+00  0.0000000000000000e+00  0.0000000000000000e+00  0.0000000000000000e+00  0.0000000000000000e+00  0.0000000000000000e+00  0.0000000000000000e+00  0.0000000000000000e+00  0.0000000000000000e+00  0.0000000000000000e+00  5.5930245075564247e-04  1.1198990933595780e-03  1.6820862532769291e-03  2.2448307957202065e-03  2.8052668831959255e-03  3.3583881064908941e-03  3.8969660335082131e-03  4.4117135173636851e-03  4.8916906082338675e-03  5.3249268891305910e-03  5.6992097186814037e-03  6.0029665901401201e-03  6.2261550188271141e-03  6.3610679388238917e-03  6.4029682424138557e-03  6.3504828829795516e-03  6.2057130842358881e-03  5.9740492205282844e-03  5.6637123685132004e-03  5.2850746696111979e-03  4.8498334217054410e-03  4.3701265296488129e-03  3.8576786226865588e-03  3.3230585716341847e-03  2.7751124786578626e-03  2.2206144392009986e-03  1.6641535937163634e-03  1.1082528096879388e-03  5.5369329403576575e-04  0.0000000000000000e+00  0.0000000000000000e+00  1.1198990933595780e-03  2.2422050178303415e-03  3.3676626167207075e-03  4.4942950894313249e-03  5.6164295661564022e-03  6.7240873461416831e-03  7.8028204624221451e-03  8.8340370405899041e-03  9.7958132207632484e-03  1.0664140179907692e-02  1.1414505541376603e-02  1.2023665452949949e-02  1.2471433587527028e-02  1.2742302080672882e-02  1.2826720470812217e-02  1.2721892214162062e-02  1.2432000738793159e-02  1.1967841395027035e-02  1.1345903020453896e-02  1.0587003654230740e-02  9.7146309781472786e-03  8.7531638290489523e-03  7.7261546395562923e-03  6.6548354765997939e-03  5.5569768452796110e-03  4.4461846502451587e-03  3.3316730485655993e-03  2.2185050329935098e-03  1.1082528096879392e-03  0.0000000000000000e+00  0.0000000000000000e+00  1.6820862532769291e-03  3.3676626167207075e-03  5.0580381435904442e-03  6.7503986633558029e-03  8.4363393215524090e-03  1.0100944609635747e-02  1.1722538410570542e-02  1.3273169914599226e-02  1.4719833782768177e-02  1.6026348349677630e-02  1.7155740956862876e-02  1.8072924109314124e-02  1.8747400235414848e-02  1.9155715262470108e-02  1.9283397407073816e-02  1.9126167878761466e-02  1.8690289283375908e-02  1.7992014991064724e-02  1.7056204895629774e-02  1.5914265356594948e-02  1.4601641127754857e-02  1.3155126321226408e-02  1.1610266890250328e-02  9.9991010927193546e-03  8.3484336075737436e-03  6.6787726452051232e-03  5.0039872898124619e-03  3.3316730485655997e-03  1.6641535937163643e-03  0.0000000000000000e+00  0.0000000000000000e+00  2.2448307957202056e-03  4.4942950894313249e-03  6.7503986633558029e-03  9.0096115334623670e-03  1.1260886894579998e-02  1.3484417702916125e-02  1.5651292389116462e-02  1.7724138440353525e-02  1.9658753174325930e-02  2.1406621080897994e-02  2.2918116446598229e-02  2.4146101430220075e-02  2.5049567172079939e-02  2.5596940996724552e-02  2.5768703793431848e-02  2.5559028885327503e-02  2.4976260060130984e-02  2.4042177933136673e-02  2.2790141891605047e-02  2.1262319867262770e-02  1.9506313015683164e-02  1.7571535576830600e-02  1.5505717587517724e-02  1.3351862909928257e-02  1.1145926329876935e-02  8.9153838140011449e-03  6.6787726452051241e-03  4.4461846502451630e-03  2.2206144392010007e-03  0.0000000000000000e+00  0.0000000000000000e+00  2.8052668831959225e-03  5.6164295661563987e-03  8.4363393215524038e-03  1.1260886894579995e-02  1.4076492946143009e-02  1.6858528508730500e-02  1.9570867347635079e-02  2.2166682588146504e-02  2.4590488595579156e-02  2.6781303580285926e-02  2.8676681241383253e-02  3.0217247291990747e-02  3.1351296612580785e-02  3.2038974608451190e-02  3.2255591846825922e-02  3.1993705292853634e-02  3.1263733664412464e-02  3.0093040890932721e-02  2.8523596807340384e-02  2.6608482967310835e-02  2.4407631987701330e-02  2.1983256456777425e-02  1.9395432815418036e-02  1.6698260835220084e-02  1.3936932005244963e-02  1.1145926329876937e-02  8.3484336075737506e-03  5.5569768452796162e-03  2.7751124786578657e-03  0.0000000000000000e+00  0.0000000000000000e+00  3.3583881064908889e-03  6.7240873461416719e-03  1.0100944609635735e-02  1.3484417702916116e-02  1.6858528508730489e-02  2.0193937733310702e-02  2.3447385177744983e-02  2.6562632745312197e-02  2.9472913944629971e-02  3.2104742372394766e-02  3.4382777568007693e-02  3.6235309571840409e-02  3.7599825137957864e-02  3.8428078028907076e-02  3.8690115340042248e-02  3.8376812989895911e-02  3.7500635906653340e-02  3.6094540593737581e-02  3.4209150903551283e-02  3.1908531298785993e-02  2.9265028853967649e-02  2.6353737709155629e-02  2.3247151065454795e-02  2.0010511117263756e-02  1.6698260835220084e-02  1.3351862909928262e-02  9.9991010927193581e-03  6.6548354765997983e-03  3.3230585716341873e-03  0.0000000000000000e+00  0.0000000000000000e+00  3.8969660335082101e-03  7.8028204624221399e-03  1.1722538410570537e-02  1.5651292389116455e-02  1.9570867347635069e-02  2.3447385177744987e-02  2.7230625529033603e-02  3.0855106072485781e-02  3.4242930033533049e-02  3.7308231888147615e-02  3.9962870974977874e-02  4.2122860754691072e-02  4.3714904213229454e-02  4.4682356388093647e-02  4.4989967973620176e-02  4.4626881744817465e-02  4.3607544065533153e-02  4.1970431816052485e-02  3.9774746659723026e-02  3.7095457231878390e-02  3.4017243703655296e-02  3.0627996743959735e-02  2.7012536326833998e-02  2.3247151065454778e-02  1.9395432815418022e-02  1.5505717587517714e-02  1.1610266890250324e-02  7.7261546395562914e-03  3.8576786226865601e-03  0.0000000000000000e+00  0.0000000000000000e+00  4.4117135173636834e-03  8.8340370405898989e-03  1.3273169914599221e-02  1.7724138440353518e-02  2.2166682588146497e-02  2.6562632745312190e-02  3.0855106072485792e-02  3.4969712065065411e-02  3.8817780468924035e-02  4.2301422750103561e-02  4.5320030548210419e-02  4.7777627679348220e-02  4.9590355960137888e-02  5.0693316123522757e-02  5.1046020857704183e-02  5.0635850646550691e-02  4.9479121080772626e-02  4.7619643777023817e-02  4.5124952733681736e-02  4.2080631671402149e-02  3.8583378642700332e-02  3.4733556922587616e-02  3.0627996743959735e-02  2.6353737709155604e-02  2.1983256456777407e-02  1.7571535576830583e-02  1.3155126321226398e-02  8.7531638290489471e-03  4.3701265296488120e-03  0.0000000000000000e+00  0.0000000000000000e+00  4.8916906082338649e-03  9.7958132207632449e-03  1.4719833782768173e-02  1.9658753174325919e-02  2.4590488595579142e-02  2.9472913944629964e-02  3.4242930033533056e-02  3.8817780468924028e-02  4.3098632751084644e-02  4.6976218476356552e-02  5.0338093258098952e-02  5.3076866061641574e-02  5.5098592600301720e-02  5.6330458714164984e-02  5.6726917430928996e-02  5.6273591732789022e-02  5.4988499074556767e-02  5.2920461080084580e-02  5.0144888297536522e-02  4.6757427612097766e-02  4.2866186839834494e-02  3.8583378642700387e-02  3.4017243703655338e-02  2.9265028853967669e-02  2.4407631987701343e-02  1.9506313015683174e-02  1.4601641127754871e-02  9.7146309781472873e-03  4.8498334217054462e-03  0.0000000000000000e+00  0.0000000000000000e+00  5.3249268891305858e-03  1.0664140179907687e-02  1.6026348349677626e-02  2.1406621080897983e-02  2.6781303580285933e-02  3.2104742372394773e-02  3.7308231888147622e-02  4.2301422750103568e-02  4.6976218476356552e-02  5.1212939989117572e-02  5.4888280502602131e-02  5.7884339973391694e-02  6.0097855432978062e-02  6.1448665165914435e-02  6.1886483662928912e-02  6.1395225604073039e-02  5.9994384873086268e-02  5.7737313291406175e-02  5.4706604433058373e-02  5.1007117465658738e-02  4.6757427612097807e-02  4.2080631671402254e-02  3.7095457231878466e-02  3.1908531298786041e-02  2.6608482967310877e-02  2.1262319867262802e-02  1.5914265356594976e-02  1.0587003654230763e-02  5.2850746696112092e-03  0.0000000000000000e+00  0.0000000000000000e+00  5.6992097186813976e-03  1.1414505541376593e-02  1.7155740956862866e-02  2.2918116446598219e-02  2.8676681241383239e-02  3.4382777568007679e-02  3.9962870974977839e-02  4.5320030548210391e-02  5.0338093258098932e-02  5.4888280502602124e-02  5.8837757393490717e-02  6.2059371920433037e-02  6.4441622096801474e-02  6.5897811699638889e-02  6.6373394523776372e-02  6.5850679237058424e-02  6.4350355184798036e-02  6.1929665680237000e-02  5.8677446373831252e-02  5.4706604433058463e-02  5.0144888297536626e-02  4.5124952733681882e-02  3.9774746659723179e-02  3.4209150903551387e-02  2.8523596807340453e-02  2.2790141891605113e-02  1.7056204895629826e-02  1.1345903020453924e-02  5.6637123685132160e-03  0.0000000000000000e+00  0.0000000000000000e+00  6.0029665901401115e-03  1.2023665452949930e-02  1.8072924109314107e-02  2.4146101430220047e-02  3.0217247291990715e-02  3.6235309571840381e-02  4.2122860754691037e-02  4.7777627679348178e-02  5.3076866061641512e-02  5.7884339973391631e-02  6.2059371920432996e-02  6.5467159041378883e-02  6.7989348123657076e-02  6.9533766440979874e-02  7.0042244250538149e-02  6.9495645206972406e-02  6.7915525658644477e-02  6.5362232513290874e-02  6.1929665680236973e-02  5.7737313291406238e-02  5.2920461080084698e-02  4.7619643777023976e-02  4.1970431816052631e-02  3.6094540593737671e-02  3.0093040890932794e-02  2.4042177933136729e-02  1.7992014991064766e-02  1.1967841395027061e-02  5.9740492205282957e-03  0.0000000000000000e+00  0.0000000000000000e+00  6.2261550188271028e-03  1.2471433587527007e-02  1.8747400235414820e-02  2.5049567172079890e-02  3.1351296612580737e-02  3.7599825137957836e-02  4.3714904213229426e-02  4.9590355960137868e-02  5.5098592600301678e-02  6.0097855432977999e-02  6.4441622096801474e-02  6.7989348123657090e-02  7.0617495222055321e-02  7.2229696204124297e-02  7.2764944096570708e-02  7.2202878722780695e-02  7.0565560400482827e-02  6.7915525658644421e-02  6.4350355184797967e-02  5.9994384873086282e-02  5.4988499074556829e-02  4.9479121080772771e-02  4.3607544065533278e-02  3.7500635906653416e-02  3.1263733664412506e-02  2.4976260060131022e-02  1.8690289283375933e-02  1.2432000738793180e-02  6.2057130842358976e-03  0.0000000000000000e+00  0.0000000000000000e+00  6.3610679388238795e-03  1.2742302080672853e-02  1.9155715262470063e-02  2.5596940996724504e-02  3.2038974608451128e-02  3.8428078028907041e-02  4.4682356388093598e-02  5.0693316123522722e-02  5.6330458714164949e-02  6.1448665165914379e-02  6.5897811699638847e-02  6.9533766440979861e-02  7.2229696204124283e-02  7.3886504868247202e-02  7.4441260650902036e-02  7.3872657527690802e-02  7.2202878722780639e-02  6.9495645206972295e-02  6.5850679237058299e-02  6.1395225604073018e-02  5.6273591732789063e-02  5.0635850646550837e-02  4.4626881744817583e-02  3.8376812989895967e-02  3.1993705292853669e-02  2.5559028885327524e-02  1.9126167878761480e-02  1.2721892214162072e-02  6.3504828829795577e-03  0.0000000000000000e+00  0.0000000000000000e+00  6.4029682424138392e-03  1.2826720470812177e-02  1.9283397407073771e-02  2.5768703793431800e-02  3.2255591846825873e-02  3.8690115340042228e-02  4.4989967973620114e-02  5.1046020857704134e-02  5.6726917430928933e-02  6.1886483662928815e-02  6.6373394523776275e-02  7.0042244250538080e-02  7.2764944096570652e-02  7.4441260650902008e-02  7.5007341336418454e-02  7.4441260650902036e-02  7.2764944096570638e-02  7.0042244250537983e-02  6.6373394523776275e-02  6.1886483662928871e-02  5.6726917430929023e-02  5.1046020857704308e-02  4.4989967973620239e-02  3.8690115340042283e-02  3.2255591846825922e-02  2.5768703793431859e-02  1.9283397407073816e-02  1.2826720470812217e-02  6.4029682424138592e-03  0.0000000000000000e+00  0.0000000000000000e+00  6.3504828829795378e-03  1.2721892214162032e-02  1.9126167878761431e-02  2.5559028885327458e-02  3.1993705292853607e-02  3.8376812989895870e-02  4.4626881744817402e-02  5.0635850646550629e-02  5.6273591732788918e-02  6.1395225604072942e-02  6.5850679237058299e-02  6.9495645206972337e-02  7.2202878722780653e-02  7.3872657527690788e-02  7.4441260650901980e-02  7.3886504868247146e-02  7.2229696204124172e-02  6.9533766440979708e-02  6.5897811699638723e-02  6.1448665165914358e-02  5.6330458714165005e-02  5.0693316123522861e-02  4.4682356388093702e-02  3.8428078028907089e-02  3.2038974608451176e-02  2.5596940996724542e-02  1.9155715262470101e-02  1.2742302080672882e-02  6.3610679388238934e-03  0.0000000000000000e+00  0.0000000000000000e+00  6.2057130842358725e-03  1.2432000738793135e-02  1.8690289283375881e-02  2.4976260060130935e-02  3.1263733664412430e-02  3.7500635906653319e-02  4.3607544065533112e-02  4.9479121080772563e-02  5.4988499074556677e-02  5.9994384873086198e-02  6.4350355184797939e-02  6.7915525658644421e-02  7.0565560400482771e-02  7.2202878722780611e-02  7.2764944096570583e-02  7.2229696204124158e-02  7.0617495222055141e-02  6.7989348123656854e-02  6.4441622096801293e-02  6.0097855432977958e-02  5.5098592600301699e-02  4.9590355960137951e-02  4.3714904213229488e-02  3.7599825137957864e-02  3.1351296612580765e-02  2.5049567172079918e-02  1.8747400235414838e-02  1.2471433587527021e-02  6.2261550188271106e-03  0.0000000000000000e+00  0.0000000000000000e+00  5.9740492205282705e-03  1.1967841395027008e-02  1.7992014991064689e-02  2.4042177933136632e-02  3.0093040890932687e-02  3.6094540593737554e-02  4.1970431816052443e-02  4.7619643777023747e-02  5.2920461080084497e-02  5.7737313291406092e-02  6.1929665680236889e-02  6.5362232513290819e-02  6.7915525658644366e-02  6.9495645206972240e-02  7.0042244250537913e-02  6.9533766440979652e-02  6.7989348123656826e-02  6.5467159041378634e-02  6.2059371920432795e-02  5.7884339973391534e-02  5.3076866061641470e-02  4.7777627679348220e-02  4.2122860754691051e-02  3.6235309571840388e-02  3.0217247291990709e-02  2.4146101430220043e-02  1.8072924109314104e-02  1.2023665452949934e-02  6.0029665901401123e-03  0.0000000000000000e+00  0.0000000000000000e+00  5.6637123685131891e-03  1.1345903020453870e-02  1.7056204895629746e-02  2.2790141891605005e-02  2.8523596807340342e-02  3.4209150903551248e-02  3.9774746659722984e-02  4.5124952733681646e-02  5.0144888297536418e-02  5.4706604433058290e-02  5.8677446373831127e-02  6.1929665680236896e-02  6.4350355184797883e-02  6.5850679237058202e-02  6.6373394523776177e-02  6.5897811699638667e-02  6.4441622096801210e-02  6.2059371920432760e-02  5.8837757393490488e-02  5.4888280502601965e-02  5.0338093258098862e-02  4.5320030548210419e-02  3.9962870974977860e-02  3.4382777568007665e-02  2.8676681241383218e-02  2.2918116446598205e-02  1.7155740956862845e-02  1.1414505541376583e-02  5.6992097186813950e-03  0.0000000000000000e+00  0.0000000000000000e+00  5.2850746696111867e-03  1.0587003654230716e-02  1.5914265356594921e-02  2.1262319867262718e-02  2.6608482967310779e-02  3.1908531298785937e-02  3.7095457231878320e-02  4.2080631671402052e-02  4.6757427612097655e-02  5.1007117465658620e-02  5.4706604433058338e-02  5.7737313291406127e-02  5.9994384873086185e-02  6.1395225604072887e-02  6.1886483662928732e-02  6.1448665165914268e-02  6.0097855432977874e-02  5.7884339973391472e-02  5.4888280502601944e-02  5.1212939989117474e-02  4.6976218476356517e-02  4.2301422750103582e-02  3.7308231888147643e-02  3.2104742372394759e-02  2.6781303580285902e-02  2.1406621080897966e-02  1.6026348349677613e-02  1.0664140179907678e-02  5.3249268891305832e-03  0.0000000000000000e+00  0.0000000000000000e+00  4.8498334217054297e-03  9.7146309781472560e-03  1.4601641127754821e-02  1.9506313015683115e-02  2.4407631987701274e-02  2.9265028853967597e-02  3.4017243703655213e-02  3.8583378642700228e-02  4.2866186839834355e-02  4.6757427612097668e-02  5.0144888297536487e-02  5.2920461080084566e-02  5.4988499074556697e-02  5.6273591732788918e-02  5.6726917430928864e-02  5.6330458714164859e-02  5.5098592600301588e-02  5.3076866061641401e-02  5.0338093258098800e-02  4.6976218476356475e-02  4.3098632751084616e-02  3.8817780468924042e-02  3.4242930033533063e-02  2.9472913944629954e-02  2.4590488595579139e-02  1.9658753174325909e-02  1.4719833782768168e-02  9.7958132207632449e-03  4.8916906082338667e-03  0.0000000000000000e+00  0.0000000000000000e+00  4.3701265296487999e-03  8.7531638290489228e-03  1.3155126321226365e-02  1.7571535576830544e-02  2.1983256456777366e-02  2.6353737709155559e-02  3.0627996743959645e-02  3.4733556922587498e-02  3.8583378642700235e-02  4.2080631671402094e-02  4.5124952733681722e-02  4.7619643777023837e-02  4.9479121080772633e-02  5.0635850646550656e-02  5.1046020857704121e-02  5.0693316123522680e-02  4.9590355960137805e-02  4.7777627679348088e-02  4.5320030548210301e-02  4.2301422750103512e-02  3.8817780468924000e-02  3.4969712065065439e-02  3.0855106072485809e-02  2.6562632745312197e-02  2.2166682588146497e-02  1.7724138440353521e-02  1.3273169914599228e-02  8.8340370405899076e-03  4.4117135173636877e-03  0.0000000000000000e+00  0.0000000000000000e+00  3.8576786226865475e-03  7.7261546395562672e-03  1.1610266890250291e-02  1.5505717587517669e-02  1.9395432815417984e-02  2.3247151065454733e-02  2.7012536326833911e-02  3.0627996743959610e-02  3.4017243703655185e-02  3.7095457231878320e-02  3.9774746659723019e-02  4.1970431816052485e-02  4.3607544065533126e-02  4.4626881744817395e-02  4.4989967973620086e-02  4.4682356388093543e-02  4.3714904213229343e-02  4.2122860754690919e-02  3.9962870974977728e-02  3.7308231888147532e-02  3.4242930033532994e-02  3.0855106072485799e-02  2.7230625529033593e-02  2.3447385177744966e-02  1.9570867347635055e-02  1.5651292389116445e-02  1.1722538410570535e-02  7.8028204624221434e-03  3.8969660335082105e-03  0.0000000000000000e+00  0.0000000000000000e+00  3.3230585716341752e-03  6.6548354765997748e-03  9.9991010927193234e-03  1.3351862909928222e-02  1.6698260835220042e-02  2.0010511117263707e-02  2.3247151065454708e-02  2.6353737709155518e-02  2.9265028853967572e-02  3.1908531298785923e-02  3.4209150903551255e-02  3.6094540593737554e-02  3.7500635906653292e-02  3.8376812989895835e-02  3.8690115340042179e-02  3.8428078028906992e-02  3.7599825137957774e-02  3.6235309571840277e-02  3.4382777568007561e-02  3.2104742372394683e-02  2.9472913944629905e-02  2.6562632745312179e-02  2.3447385177744969e-02  2.0193937733310678e-02  1.6858528508730469e-02  1.3484417702916104e-02  1.0100944609635733e-02  6.7240873461416736e-03  3.3583881064908881e-03  0.0000000000000000e+00  0.0000000000000000e+00  2.7751124786578544e-03  5.5569768452795954e-03  8.3484336075737194e-03  1.1145926329876901e-02  1.3936932005244920e-02  1.6698260835220045e-02  1.9395432815417963e-02  2.1983256456777338e-02  2.4407631987701260e-02  2.6608482967310786e-02  2.8523596807340342e-02  3.0093040890932690e-02  3.1263733664412402e-02  3.1993705292853586e-02  3.2255591846825853e-02  3.2038974608451107e-02  3.1351296612580681e-02  3.0217247291990629e-02  2.8676681241383149e-02  2.6781303580285853e-02  2.4590488595579101e-02  2.2166682588146500e-02  1.9570867347635065e-02  1.6858528508730479e-02  1.4076492946142992e-02  1.1260886894579982e-02  8.4363393215523986e-03  5.6164295661563918e-03  2.8052668831959207e-03  0.0000000000000000e+00  0.0000000000000000e+00  2.2206144392009921e-03  4.4461846502451465e-03  6.6787726452051015e-03  8.9153838140011189e-03  1.1145926329876904e-02  1.3351862909928226e-02  1.5505717587517669e-02  1.7571535576830530e-02  1.9506313015683108e-02  2.1262319867262725e-02  2.2790141891605022e-02  2.4042177933136649e-02  2.4976260060130952e-02  2.5559028885327455e-02  2.5768703793431793e-02  2.5596940996724486e-02  2.5049567172079852e-02  2.4146101430219988e-02  2.2918116446598153e-02  2.1406621080897931e-02  1.9658753174325892e-02  1.7724138440353525e-02  1.5651292389116455e