<?xml version="1.0"?>
<VTKFile type="UnstructuredGrid"  version="0.1"  >
<UnstructuredGrid>
<Piece  NumberOfPoints="1681" NumberOfCells="3200">
<Points>
<DataArray  type="Float64"  NumberOfComponents="3"  format="ascii">-2 -2 0  -1.9 -2 0  -1.8 -2 0  -1.7 -2 0  -1.6 -2 0  -1.5 -2 0  -1.4 -2 0  -1.3 -2 0  -1.2 -2 0  -1.1 -2 0  -1 -2 0  -0.8999999999999999 -2 0  -0.8 -2 0  -0.7 -2 0  -0.6000000000000001 -2 0  -0.5 -2 0  -0.3999999999999999 -2 0  -0.3 -2 0  -0.2 -2 0  -0.1000000000000001 -2 0  0 -2 0  0.1000000000000001 -2 0  0.2000000000000002 -2 0  0.2999999999999998 -2 0  0.3999999999999999 -2 0  0.5 -2 0  0.6000000000000001 -2 0  0.7000000000000002 -2 0  0.7999999999999998 -2 0  0.8999999999999999 -2 0  1 -2 0  1.1 -2 0  1.2 -2 0  1.3 -2 0  1.4 -2 0  1.5 -2 0  1.6 -2 0  1.7 -2 0  1.8 -2 0  1.9 -2 0  2 -2 0  -2 -1.9 0  -1.9 -1.9 0  -1.8 -1.9 0  -1.7 -1.9 0  -1.6 -1.9 0  -1.5 -1.9 0  -1.4 -1.9 0  -1.3 -1.9 0  -1.2 -1.9 0  -1.1 -1.9 0  -1 -1.9 0  -0.8999999999999999 -1.9 0  -0.8 -1.9 0  -0.7 -1.9 0  -0.6000000000000001 -1.9 0  -0.5 -1.9 0  -0.3999999999999999 -1.9 0  -0.3 -1.9 0  -0.2 -1.9 0  -0.1000000000000001 -1.9 0  0 -1.9 0  0.1000000000000001 -1.9 0  0.2000000000000002 -1.9 0  0.2999999999999998 -1.9 0  0.3999999999999999 -1.9 0  0.5 -1.9 0  0.6000000000000001 -1.9 0  0.7000000000000002 -1.9 0  0.7999999999999998 -1.9 0  0.8999999999999999 -1.9 0  1 -1.9 0  1.1 -1.9 0  1.2 -1.9 0  1.3 -1.9 0  1.4 -1.9 0  1.5 -1.9 0  1.6 -1.9 0  1.7 -1.9 0  1.8 -1.9 0  1.9 -1.9 0  2 -1.9 0  -2 -1.8 0  -1.9 -1.8 0  -1.8 -1.8 0  -1.7 -1.8 0  -1.6 -1.8 0  -1.5 -1.8 0  -1.4 -1.8 0  -1.3 -1.8 0  -1.2 -1.8 0  -1.1 -1.8 0  -1 -1.8 0  -0.8999999999999999 -1.8 0  -0.8 -1.8 0  -0.7 -1.8 0  -0.6000000000000001 -1.8 0  -0.5 -1.8 0  -0.3999999999999999 -1.8 0  -0.3 -1.8 0  -0.2 -1.8 0  -0.1000000000000001 -1.8 0  0 -1.8 0  0.1000000000000001 -1.8 0  0.2000000000000002 -1.8 0  0.2999999999999998 -1.8 0  0.3999999999999999 -1.8 0  0.5 -1.8 0  0.6000000000000001 -1.8 0  0.7000000000000002 -1.8 0  0.7999999999999998 -1.8 0  0.8999999999999999 -1.8 0  1 -1.8 0  1.1 -1.8 0  1.2 -1.8 0  1.3 -1.8 0  1.4 -1.8 0  1.5 -1.8 0  1.6 -1.8 0  1.7 -1.8 0  1.8 -1.8 0  1.9 -1.8 0  2 -1.8 0  -2 -1.7 0  -1.9 -1.7 0  -1.8 -1.7 0  -1.7 -1.7 0  -1.6 -1.7 0  -1.5 -1.7 0  -1.4 -1.7 0  -1.3 -1.7 0  -1.2 -1.7 0  -1.1 -1.7 0  -1 -1.7 0  -0.8999999999999999 -1.7 0  -0.8 -1.7 0  -0.7 -1.7 0  -0.6000000000000001 -1.7 0  -0.5 -1.7 0  -0.3999999999999999 -1.7 0  -0.3 -1.7 0  -0.2 -1.7 0  -0.1000000000000001 -1.7 0  0 -1.7 0  0.1000000000000001 -1.7 0  0.2000000000000002 -1.7 0  0.2999999999999998 -1.7 0  0.3999999999999999 -1.7 0  0.5 -1.7 0  0.6000000000000001 -1.7 0  0.7000000000000002 -1.7 0  0.7999999999999998 -1.7 0  0.8999999999999999 -1.7 0  1 -1.7 0  1.1 -1.7 0  1.2 -1.7 0  1.3 -1.7 0  1.4 -1.7 0  1.5 -1.7 0  1.6 -1.7 0  1.7 -1.7 0  1.8 -1.7 0  1.9 -1.7 0  2 -1.7 0  -2 -1.6 0  -1.9 -1.6 0  -1.8 -1.6 0  -1.7 -1.6 0  -1.6 -1.6 0  -1.5 -1.6 0  -1.4 -1.6 0  -1.3 -1.6 0  -1.2 -1.6 0  -1.1 -1.6 0  -1 -1.6 0  -0.8999999999999999 -1.6 0  -0.8 -1.6 0  -0.7 -1.6 0  -0.6000000000000001 -1.6 0  -0.5 -1.6 0  -0.3999999999999999 -1.6 0  -0.3 -1.6 0  -0.2 -1.6 0  -0.1000000000000001 -1.6 0  0 -1.6 0  0.1000000000000001 -1.6 0  0.2000000000000002 -1.6 0  0.2999999999999998 -1.6 0  0.3999999999999999 -1.6 0  0.5 -1.6 0  0.6000000000000001 -1.6 0  0.7000000000000002 -1.6 0  0.7999999999999998 -1.6 0  0.8999999999999999 -1.6 0  1 -1.6 0  1.1 -1.6 0  1.2 -1.6 0  1.3 -1.6 0  1.4 -1.6 0  1.5 -1.6 0  1.6 -1.6 0  1.7 -1.6 0  1.8 -1.6 0  1.9 -1.6 0  2 -1.6 0  -2 -1.5 0  -1.9 -1.5 0  -1.8 -1.5 0  -1.7 -1.5 0  -1.6 -1.5 0  -1.5 -1.5 0  -1.4 -1.5 0  -1.3 -1.5 0  -1.2 -1.5 0  -1.1 -1.5 0  -1 -1.5 0  -0.8999999999999999 -1.5 0  -0.8 -1.5 0  -0.7 -1.5 0  -0.6000000000000001 -1.5 0  -0.5 -1.5 0  -0.3999999999999999 -1.5 0  -0.3 -1.5 0  -0.2 -1.5 0  -0.1000000000000001 -1.5 0  0 -1.5 0  0.1000000000000001 -1.5 0  0.2000000000000002 -1.5 0  0.2999999999999998 -1.5 0  0.3999999999999999 -1.5 0  0.5 -1.5 0  0.6000000000000001 -1.5 0  0.7000000000000002 -1.5 0  0.7999999999999998 -1.5 0  0.8999999999999999 -1.5 0  1 -1.5 0  1.1 -1.5 0  1.2 -1.5 0  1.3 -1.5 0  1.4 -1.5 0  1.5 -1.5 0  1.6 -1.5 0  1.7 -1.5 0  1.8 -1.5 0  1.9 -1.5 0  2 -1.5 0  -2 -1.4 0  -1.9 -1.4 0  -1.8 -1.4 0  -1.7 -1.4 0  -1.6 -1.4 0  -1.5 -1.4 0  -1.4 -1.4 0  -1.3 -1.4 0  -1.2 -1.4 0  -1.1 -1.4 0  -1 -1.4 0  -0.8999999999999999 -1.4 0  -0.8 -1.4 0  -0.7 -1.4 0  -0.6000000000000001 -1.4 0  -0.5 -1.4 0  -0.3999999999999999 -1.4 0  -0.3 -1.4 0  -0.2 -1.4 0  -0.1000000000000001 -1.4 0  0 -1.4 0  0.1000000000000001 -1.4 0  0.2000000000000002 -1.4 0  0.2999999999999998 -1.4 0  0.3999999999999999 -1.4 0  0.5 -1.4 0  0.6000000000000001 -1.4 0  0.7000000000000002 -1.4 0  0.7999999999999998 -1.4 0  0.8999999999999999 -1.4 0  1 -1.4 0  1.1 -1.4 0  1.2 -1.4 0  1.3 -1.4 0  1.4 -1.4 0  1.5 -1.4 0  1.6 -1.4 0  1.7 -1.4 0  1.8 -1.4 0  1.9 -1.4 0  2 -1.4 0  -2 -1.3 0  -1.9 -1.3 0  -1.8 -1.3 0  -1.7 -1.3 0  -1.6 -1.3 0  -1.5 -1.3 0  -1.4 -1.3 0  -1.3 -1.3 0  -1.2 -1.3 0  -1.1 -1.3 0  -1 -1.3 0  -0.8999999999999999 -1.3 0  -0.8 -1.3 0  -0.7 -1.3 0  -0.6000000000000001 -1.3 0  -0.5 -1.3 0  -0.3999999999999999 -1.3 0  -0.3 -1.3 0  -0.2 -1.3 0  -0.1000000000000001 -1.3 0  0 -1.3 0  0.1000000000000001 -1.3 0  0.2000000000000002 -1.3 0  0.2999999999999998 -1.3 0  0.3999999999999999 -1.3 0  0.5 -1.3 0  0.6000000000000001 -1.3 0  0.7000000000000002 -1.3 0  0.7999999999999998 -1.3 0  0.8999999999999999 -1.3 0  1 -1.3 0  1.1 -1.3 0  1.2 -1.3 0  1.3 -1.3 0  1.4 -1.3 0  1.5 -1.3 0  1.6 -1.3 0  1.7 -1.3 0  1.8 -1.3 0  1.9 -1.3 0  2 -1.3 0  -2 -1.2 0  -1.9 -1.2 0  -1.8 -1.2 0  -1.7 -1.2 0  -1.6 -1.2 0  -1.5 -1.2 0  -1.4 -1.2 0  -1.3 -1.2 0  -1.2 -1.2 0  -1.1 -1.2 0  -1 -1.2 0  -0.8999999999999999 -1.2 0  -0.8 -1.2 0  -0.7 -1.2 0  -0.6000000000000001 -1.2 0  -0.5 -1.2 0  -0.3999999999999999 -1.2 0  -0.3 -1.2 0  -0.2 -1.2 0  -0.1000000000000001 -1.2 0  0 -1.2 0  0.1000000000000001 -1.2 0  0.2000000000000002 -1.2 0  0.2999999999999998 -1.2 0  0.3999999999999999 -1.2 0  0.5 -1.2 0  0.6000000000000001 -1.2 0  0.7000000000000002 -1.2 0  0.7999999999999998 -1.2 0  0.8999999999999999 -1.2 0  1 -1.2 0  1.1 -1.2 0  1.2 -1.2 0  1.3 -1.2 0  1.4 -1.2 0  1.5 -1.2 0  1.6 -1.2 0  1.7 -1.2 0  1.8 -1.2 0  1.9 -1.2 0  2 -1.2 0  -2 -1.1 0  -1.9 -1.1 0  -1.8 -1.1 0  -1.7 -1.1 0  -1.6 -1.1 0  -1.5 -1.1 0  -1.4 -1.1 0  -1.3 -1.1 0  -1.2 -1.1 0  -1.1 -1.1 0  -1 -1.1 0  -0.8999999999999999 -1.1 0  -0.8 -1.1 0  -0.7 -1.1 0  -0.6000000000000001 -1.1 0  -0.5 -1.1 0  -0.3999999999999999 -1.1 0  -0.3 -1.1 0  -0.2 -1.1 0  -0.1000000000000001 -1.1 0  0 -1.1 0  0.1000000000000001 -1.1 0  0.2000000000000002 -1.1 0  0.2999999999999998 -1.1 0  0.3999999999999999 -1.1 0  0.5 -1.1 0  0.6000000000000001 -1.1 0  0.7000000000000002 -1.1 0  0.7999999999999998 -1.1 0  0.8999999999999999 -1.1 0  1 -1.1 0  1.1 -1.1 0  1.2 -1.1 0  1.3 -1.1 0  1.4 -1.1 0  1.5 -1.1 0  1.6 -1.1 0  1.7 -1.1 0  1.8 -1.1 0  1.9 -1.1 0  2 -1.1 0  -2 -1 0  -1.9 -1 0  -1.8 -1 0  -1.7 -1 0  -1.6 -1 0  -1.5 -1 0  -1.4 -1 0  -1.3 -1 0  -1.2 -1 0  -1.1 -1 0  -1 -1 0  -0.8999999999999999 -1 0  -0.8 -1 0  -0.7 -1 0  -0.6000000000000001 -1 0  -0.5 -1 0  -0.3999999999999999 -1 0  -0.3 -1 0  -0.2 -1 0  -0.1000000000000001 -1 0  0 -1 0  0.1000000000000001 -1 0  0.2000000000000002 -1 0  0.2999999999999998 -1 0  0.3999999999999999 -1 0  0.5 -1 0  0.6000000000000001 -1 0  0.7000000000000002 -1 0  0.7999999999999998 -1 0  0.8999999999999999 -1 0  1 -1 0  1.1 -1 0  1.2 -1 0  1.3 -1 0  1.4 -1 0  1.5 -1 0  1.6 -1 0  1.7 -1 0  1.8 -1 0  1.9 -1 0  2 -1 0  -2 -0.8999999999999999 0  -1.9 -0.8999999999999999 0  -1.8 -0.8999999999999999 0  -1.7 -0.8999999999999999 0  -1.6 -0.8999999999999999 0  -1.5 -0.8999999999999999 0  -1.4 -0.8999999999999999 0  -1.3 -0.8999999999999999 0  -1.2 -0.8999999999999999 0  -1.1 -0.8999999999999999 0  -1 -0.8999999999999999 0  -0.8999999999999999 -0.8999999999999999 0  -0.8 -0.8999999999999999 0  -0.7 -0.8999999999999999 0  -0.6000000000000001 -0.8999999999999999 0  -0.5 -0.8999999999999999 0  -0.3999999999999999 -0.8999999999999999 0  -0.3 -0.8999999999999999 0  -0.2 -0.8999999999999999 0  -0.1000000000000001 -0.8999999999999999 0  0 -0.8999999999999999 0  0.1000000000000001 -0.8999999999999999 0  0.2000000000000002 -0.8999999999999999 0  0.2999999999999998 -0.8999999999999999 0  0.3999999999999999 -0.8999999999999999 0  0.5 -0.8999999999999999 0  0.6000000000000001 -0.8999999999999999 0  0.7000000000000002 -0.8999999999999999 0  0.7999999999999998 -0.8999999999999999 0  0.8999999999999999 -0.8999999999999999 0  1 -0.8999999999999999 0  1.1 -0.8999999999999999 0  1.2 -0.8999999999999999 0  1.3 -0.8999999999999999 0  1.4 -0.8999999999999999 0  1.5 -0.8999999999999999 0  1.6 -0.8999999999999999 0  1.7 -0.8999999999999999 0  1.8 -0.8999999999999999 0  1.9 -0.8999999999999999 0  2 -0.8999999999999999 0  -2 -0.8 0  -1.9 -0.8 0  -1.8 -0.8 0  -1.7 -0.8 0  -1.6 -0.8 0  -1.5 -0.8 0  -1.4 -0.8 0  -1.3 -0.8 0  -1.2 -0.8 0  -1.1 -0.8 0  -1 -0.8 0  -0.8999999999999999 -0.8 0  -0.8 -0.8 0  -0.7 -0.8 0  -0.6000000000000001 -0.8 0  -0.5 -0.8 0  -0.3999999999999999 -0.8 0  -0.3 -0.8 0  -0.2 -0.8 0  -0.1000000000000001 -0.8 0  0 -0.8 0  0.1000000000000001 -0.8 0  0.2000000000000002 -0.8 0  0.2999999999999998 -0.8 0  0.3999999999999999 -0.8 0  0.5 -0.8 0  0.6000000000000001 -0.8 0  0.7000000000000002 -0.8 0  0.7999999999999998 -0.8 0  0.8999999999999999 -0.8 0  1 -0.8 0  1.1 -0.8 0  1.2 -0.8 0  1.3 -0.8 0  1.4 -0.8 0  1.5 -0.8 0  1.6 -0.8 0  1.7 -0.8 0  1.8 -0.8 0  1.9 -0.8 0  2 -0.8 0  -2 -0.7 0  -1.9 -0.7 0  -1.8 -0.7 0  -1.7 -0.7 0  -1.6 -0.7 0  -1.5 -0.7 0  -1.4 -0.7 0  -1.3 -0.7 0  -1.2 -0.7 0  -1.1 -0.7 0  -1 -0.7 0  -0.8999999999999999 -0.7 0  -0.8 -0.7 0  -0.7 -0.7 0  -0.6000000000000001 -0.7 0  -0.5 -0.7 0  -0.3999999999999999 -0.7 0  -0.3 -0.7 0  -0.2 -0.7 0  -0.1000000000000001 -0.7 0  0 -0.7 0  0.1000000000000001 -0.7 0  0.2000000000000002 -0.7 0  0.2999999999999998 -0.7 0  0.3999999999999999 -0.7 0  0.5 -0.7 0  0.600000000000000
[...]
<PointData  Scalars="f_1726"> 
<DataArray  type="Float64"  Name="f_1726"  format="ascii">0.0000000000000000e+00  0.0000000000000000e+00  0.0000000000000000e+00  0.0000000000000000e+00  0.0000000000000000e+00  0.0000000000000000e+00  0.0000000000000000e+00  0.0000000000000000e+00  0.0000000000000000e+00  0.0000000000000000e+00  0.0000000000000000e+00  0.0000000000000000e+00  0.0000000000000000e+00  0.0000000000000000e+00  0.0000000000000000e+00  0.0000000000000000e+00  0.0000000000000000e+00  0.0000000000000000e+00  0.0000000000000000e+00  0.0000000000000000e+00  0.0000000000000000e+00  0.0000000000000000e+00  0.0000000000000000e+00  0.0000000000000000e+00  0.0000000000000000e+00  0.0000000000000000e+00  0.0000000000000000e+00  0.0000000000000000e+00  0.0000000000000000e+00  0.0000000000000000e+00  0.0000000000000000e+00  0.0000000000000000e+00  0.0000000000000000e+00  0.0000000000000000e+00  0.0000000000000000e+00  0.0000000000000000e+00  0.0000000000000000e+00  0.0000000000000000e+00  0.0000000000000000e+00  0.0000000000000000e+00  0.0000000000000000e+00  0.0000000000000000e+00  -1.4607915819988555e-11  -1.7023469428155831e-11  1.1186605982845676e-10  -2.6956548655728051e-11  -5.6656251980839893e-10  3.0524733730667831e-10  2.7876494040787087e-09  3.8353214651343783e-10  -1.1571026505788137e-08  -2.3088438816669154e-08  -2.0351392891890367e-08  -7.0145437714870930e-09  1.8983890815518803e-09  1.9232665343939116e-09  -1.8255337666761333e-10  -3.6863103155591994e-10  6.1759864369044473e-11  5.6737366221686628e-11  -2.2062949344211006e-11  -4.0308315534174407e-12  4.8035444912703580e-12  -9.4230901286252916e-13  -4.1081817539418137e-13  3.0687531049337007e-13  -6.7370253315223220e-14  -1.5305949688414025e-14  1.6906509034213356e-14  -6.0645960764118708e-15  7.1179958337719688e-16  4.5568008228973773e-16  -3.3962797457077691e-16  1.2727679863609241e-16  -2.8146763596380804e-17  2.3304065625037813e-19  3.3001825944081676e-18  -1.9851858492243699e-18  8.0771117185020852e-19  -2.6774845280020043e-19  8.4874509547775917e-20  0.0000000000000000e+00  0.0000000000000000e+00  -1.7023469428155835e-11  1.2242597550895249e-10  -1.0890996303158422e-10  -5.3631700446815302e-10  1.1262571382877081e-09  2.1049511320969071e-09  -6.0643705801930771e-09  -1.1846090989479930e-08  1.7663367311791434e-08  7.5704975393036778e-08  9.8832166242517882e-08  5.7883216353638557e-08  4.6817017144999858e-09  -1.1220852922182118e-08  -2.5505244897118375e-09  2.0832389824734226e-09  3.5244980705262632e-10  -4.1730982740539322e-10  1.9051843732420116e-11  6.5419622937902803e-11  -2.2046722435498487e-11  -3.1884251748495210e-12  4.5987590519228225e-12  -1.3302183556546588e-12  -1.2392231938628636e-13  2.4968832011305659e-13  -9.9575426463991242e-14  1.3849757772566797e-14  6.5913035891880694e-15  -5.3091294174824045e-15  2.0000869708025037e-15  -4.2702933180332595e-16  -7.9740597815165915e-18  5.6308487084349323e-17  -3.1944257716157637e-17  1.2488393344079659e-17  -3.9490610997747319e-18  1.0727431680220477e-18  -2.6774845280020076e-19  0.0000000000000000e+00  0.0000000000000000e+00  1.1186605982845679e-10  -1.0890996303158430e-10  -4.9032819532290373e-10  1.4521350127014886e-09  8.0114413739380806e-10  -8.6148564105227700e-09  5.3455243104314708e-10  4.3035070495068202e-08  1.6343356059553835e-08  -1.7505561763327957e-07  -3.7254435569082614e-07  -3.3023608845657990e-07  -1.0716922984945947e-07  3.5212752295104809e-08  2.8684050629544334e-08  -5.0970234711304695e-09  -5.1330518862844889e-09  1.5148401932358438e-09  6.0738944541666061e-10  -3.9976785272090831e-10  1.6284613052328116e-11  5.8136998211216024e-11  -2.3844706461525815e-11  7.0884673749631695e-13  3.2259124948902519e-12  -1.5641425557017225e-12  2.8813559792651948e-13  7.3184780347074143e-14  -7.6579006156305521e-14  3.1032598981889521e-14  -7.0972070838296394e-15  8.1591649854506312e-17  8.1809556648089015e-16  -4.8512667219377757e-16  1.9260641320430847e-16  -6.1496555373696950e-17  1.6664658377512418e-17  -3.9490610997747150e-18  8.0771117185020602e-19  0.0000000000000000e+00  0.0000000000000000e+00  -2.6956548655727899e-11  -5.3631700446815302e-10  1.4521350127014894e-09  2.7252598350760843e-10  -8.8237704881785714e-09  1.0047742588898822e-08  3.8512925513362027e-08  -7.0239117957263881e-08  -1.9405917940716240e-07  2.1098862036158522e-07  1.1210991943642316e-06  1.5110660165534403e-06  8.6565411716596258e-07  3.9939362087637272e-08  -1.7191007580771541e-07  -2.4311011601380193e-08  3.2460778792407830e-08  9.7692459966883803e-10  -5.7762055511097431e-09  1.2029053473119417e-09  5.9228835706227298e-10  -3.8683391153172037e-10  5.1903250595150594e-11  3.7230609761475504e-11  -2.3760050601409991e-11  5.5847245637579154e-12  6.2846761289373028e-13  -1.0798745581661937e-12  4.8051873310460672e-13  -1.1877383363805202e-13  5.0155916484474275e-15  1.1758063597055698e-14  -7.3997929333785995e-15  2.9972474199746701e-15  -9.6538085653445118e-16  2.6257015566882173e-16  -6.1496555373697245e-17  1.2488393344079677e-17  -1.9851858492243784e-18  0.0000000000000000e+00  0.0000000000000000e+00  -5.6656251980839975e-10  1.1262571382877077e-09  8.0114413739380806e-10  -8.8237704881785763e-09  1.3123441998681866e-08  2.9031831307723685e-08  -1.1089627480616744e-07  -6.1647742920067729e-08  5.9826300799664736e-07  4.1191191701005730e-07  -2.4365731375762848e-06  -5.6316204812142888e-06  -5.0193295052197612e-06  -1.4993385528638077e-06  6.1001064030726188e-07  3.8218356146774107e-07  -1.1040878338096170e-07  -5.8853298137516481e-08  2.8888541498204289e-08  3.1100497156720872e-09  -5.5697438998023392e-09  1.3702293229404956e-09  3.4075773457693720e-10  -3.4407532640834889e-10  1.0175995600809449e-10  1.3354961997611263e-12  -1.4745004360965527e-11  7.3713789595159656e-12  -1.9762468852349477e-12  1.3997062775236810e-13  1.6663344307849124e-13  -1.1267287184544308e-13  4.6664074905953043e-14  -1.5165215942357820e-14  4.1338011356048473e-15  -9.6538085653444960e-16  1.9260641320430891e-16  -3.1944257716157581e-17  3.3001825944081653e-18  0.0000000000000000e+00  0.0000000000000000e+00  3.0524733730667929e-10  2.1049511320969096e-09  -8.6148564105227749e-09  1.0047742588898832e-08  2.9031831307723692e-08  -1.1979162900535814e-07  3.2440180532136017e-08  6.3145038062468585e-07  -6.7834939482471189e-07  -3.0846504228445874e-06  2.2437710214063707e-06  1.6500032179585902e-05  2.3105878463924189e-05  1.2871874214789810e-05  6.2877955754529178e-08  -2.5838029826623033e-06  -1.2179654715759849e-07  4.7303810577678291e-07  -5.2998539029690290e-08  -6.6692345356113966e-08  2.7648224429284631e-08  1.1447592492676801e-09  -4.6411628107933461e-09  1.7576089726769346e-09  -1.1639880780879307e-10  -1.9158981257078688e-10  1.1160724612797489e-10  -3.2659609107790236e-11  3.2056060196607021e-12  2.3129553859714401e-12  -1.7101700418207250e-12  7.2649815543507758e-13  -2.3846474086041668e-13  6.5149340912659495e-14  -1.5165215942357820e-14  2.9972474199746646e-15  -4.8512667219377885e-16  5.6308487084349323e-17  2.3304065625034635e-19  0.0000000000000000e+00  0.0000000000000000e+00  2.7876494040787112e-09  -6.0643705801930854e-09  5.3455243104314511e-10  3.8512925513362034e-08  -1.1089627480616746e-07  3.2440180532135991e-08  6.0074562454478346e-07  -1.1990285944816012e-06  -1.9041920694734991e-06  7.8595012698331545e-06  8.7380678107901235e-06  -3.3269160705073580e-05  -8.5399026051560892e-05  -7.6561300030469220e-05  -2.0511414990549266e-05  1.0439458588217132e-05  4.7630217620527091e-06  -2.1023813515958760e-06  -5.1863558012989250e-07  4.6410359686390971e-07  -4.9338819938586953e-08  -5.5474717776015698e-08  2.8728321323830497e-08  -3.9786167828266484e-09  -2.2894785313577637e-09  1.6594844629843781e-09  -5.3557784865309815e-10  6.6963263948894007e-11  3.1148741896277860e-11  -2.5850753850386856e-11  1.1309846750540381e-11  -3.7541856947841441e-12  1.0282263944902411e-12  -2.3846474086041693e-13  4.6664074905953131e-14  -7.3997929333786074e-15  8.1809556648089488e-16  -7.9740597815171246e-18  -2.8146763596380693e-17  0.0000000000000000e+00  0.0000000000000000e+00  3.8353214651343970e-10  -1.1846090989479942e-08  4.3035070495068269e-08  -7.0239117957263961e-08  -6.1647742920067901e-08  6.3145038062468617e-07  -1.1990285944816012e-06  -1.2935900701467503e-06  9.2122333681125143e-06  -3.7163208646270489e-06  -4.7453715696783774e-05  1.8108691408108325e-05  2.4215416010712768e-04  3.5537531675552253e-04  1.9098263029219064e-04  -8.5179712741507373e-06  -3.7907702054893029e-05  2.2357585233662391e-06  6.2437830921904887e-06  -1.7149199498578116e-06  -5.0821637935350261e-07  4.3842702094150034e-07  -9.4535394768800090e-08  -2.3091090376827578e-08  2.4038096975019997e-08  -8.7004892327152982e-09  1.3259752568824450e-09  4.0021692328236265e-10  -3.8865678269042620e-10  1.7603781527766029e-10  -5.9184070986429728e-11  1.6254987656940262e-11  -3.7541856947841280e-12  7.2649815543507526e-13  -1.1267287184544262e-13  1.1758063597055626e-14  8.1591649854514571e-17  -4.2702933180332497e-16  1.2727679863609194e-16  0.0000000000000000e+00  0.0000000000000000e+00  -1.1571026505788129e-08  1.7663367311791420e-08  1.6343356059553884e-08  -1.9405917940716267e-07  5.9826300799664810e-07  -6.7834939482471178e-07  -1.9041920694735018e-06  9.2122333681125194e-06  -8.2295916560906335e-06  -4.0490455797839190e-05  9.3394339511968026e-05  1.6952820426423184e-04  -4.4059396255883009e-04  -1.3007805881171930e-03  -1.1736189676763442e-03  -2.7039755128778270e-04  1.7631806871675157e-04  5.2000766591549195e-05  -3.6133296213987313e-05  -1.0624107486194333e-06  6.0308038990106885e-06  -1.9176423408715841e-06  -1.3524178043659128e-07  3.3447353645271838e-07  -1.3960854143747372e-07  2.5344374886727173e-08  4.7395790014098760e-09  -5.8010700131290679e-09  2.7391349049035409e-09  -9.3452598768252882e-10  2.5747089595791800e-10  -5.9184070986429999e-11  1.1309846750540401e-11  -1.7101700418207333e-12  1.6663344307849286e-13  5.0155916484470820e-15  -7.0972070838296015e-15  2.0000869708024907e-15  -3.3962797457077539e-16  0.0000000000000000e+00  0.0000000000000000e+00  -2.3088438816669134e-08  7.5704975393036712e-08  -1.7505561763327949e-07  2.1098862036158506e-07  4.1191191701005847e-07  -3.0846504228445916e-06  7.8595012698331595e-06  -3.7163208646270456e-06  -4.0490455797839223e-05  1.1233844251909103e-04  5.0616092689632063e-05  -6.9609115864408054e-04  4.3677331740348783e-06  3.5365149353065732e-03  5.5092760369979633e-03  2.8219646533750721e-03  -2.9781102605805002e-04  -5.3305656184746662e-04  9.8579960411308525e-05  6.7810777940200122e-05  -3.4655394015744314e-05  1.8057536679635873e-06  4.3486369822327730e-06  -2.2015521242233124e-06  4.7206608205814415e-07  4.7250936312735063e-08  -8.5716711386427557e-08  4.2596274062355496e-08  -1.4784375521725259e-08  4.0876469147784360e-09  -9.3452598768252778e-10  1.7603781527766070e-10  -2.5850753850386824e-11  2.3129553859714401e-12  1.3997062775236866e-13  -1.1877383363805190e-13  3.1032598981889584e-14  -5.3091294174823935e-15  4.5568008228973704e-16  0.0000000000000000e+00  0.0000000000000000e+00  -2.0351392891890347e-08  9.8832166242517803e-08  -3.7254435569082598e-07  1.1210991943642309e-06  -2.4365731375762839e-06  2.2437710214063668e-06  8.7380678107901404e-06  -4.7453715696783828e-05  9.3394339511968067e-05  5.0616092689632179e-05  -6.9892541213082446e-04  8.8432524361882123e-04  3.0911113958554839e-03  -5.5224717049496960e-03  -1.9932557174309338e-02  -1.8110723101605421e-02  -3.3222387382844110e-03  2.9243032314619014e-03  3.9222734535523734e-04  -5.4943294158572137e-04  9.3104997580575744e-05  4.9463659029857030e-05  -3.3804098212757524e-05  8.6090683055772131e-06  2.5742322155204533e-07  -1.2481260460864355e-06  6.6177214271568674e-07  -2.3442626533121230e-07  6.5077793321893404e-08  -1.4784375521725263e-08  2.7391349049035396e-09  -3.8865678269042749e-10  3.1148741896277957e-11  3.2056060196606702e-12  -1.9762468852349388e-12  4.8051873310460419e-13  -7.6579006156305281e-14  6.5913035891879945e-15  7.1179958337720645e-16  0.0000000000000000e+00  0.0000000000000000e+00  -7.0145437714870856e-09  5.7883216353638504e-08  -3.3023608845657963e-07  1.5110660165534397e-06  -5.6316204812142863e-06  1.6500032179585902e-05  -3.3269160705073573e-05  1.8108691408108270e-05  1.6952820426423224e-04  -6.9609115864408119e-04  8.8432524361882101e-04  2.3512988872831631e-03  -9.3886584846296448e-03  -4.6197464875886180e-03  5.1180096111931909e-02  8.6386242949363201e-02  4.1353540005387240e-02  -7.5830934109845571e-03  -6.8841482257004441e-03  2.4110022444239760e-03  3.8872863775232092e-04  -4.9609420547861479e-04  1.5387572662256687e-04  -4.7328508179141220e-06  -1.7769489417022743e-05  1.0264508651534382e-05  -3.7275609835605551e-06  1.0396586564409538e-06  -2.3442626533121267e-07  4.2596274062355576e-08  -5.8010700131290811e-09  4.0021692328236607e-10  6.6963263948893542e-11  -3.2659609107790165e-11  7.3713789595159527e-12  -1.0798745581661911e-12  7.3184780347074042e-14  1.3849757772566797e-14  -6.0645960764118684e-15  0.0000000000000000e+00  0.0000000000000000e+00  1.8983890815518849e-09  4.6817017144999527e-09  -1.0716922984945927e-07  8.6565411716596131e-07  -5.0193295052197569e-06  2.3105878463924179e-05  -8.5399026051560865e-05  2.4215416010712768e-04  -4.4059396255883014e-04  4.3677331740332113e-06  3.0911113958554900e-03  -9.3886584846296500e-03  2.8073827095188748e-03  5.3053119572397750e-02  -6.1460685821720817e-02  -3.0806177236184518e-01  -2.8212155611004558e-01  -3.4531515780711355e-02  4.6954456559985654e-02  -1.7026710467921084e-03  -6.6624632121937907e-03  2.6852303489393351e-03  -2.3598788122521455e-04  -2.4368264129750010e-04  1.5876746093117943e-04  -5.9479638800159278e-05  1.6681854620481691e-05  -3.7275609835605394e-06  6.6177214271568462e-07  -8.5716711386427160e-08  4.7395790014098230e-09  1.3259752568824522e-09  -5.3557784865309660e-10  1.1160724612797443e-10  -1.4745004360965417e-11  6.2846761289371352e-13  2.8813559792652236e-13  -9.9575426463991267e-14  1.6906509034213340e-14  0.0000000000000000e+00  0.0000000000000000e+00  1.9232665343939124e-09  -1.1220852922182123e-08  3.5212752295104869e-08  3.9939362087636915e-08  -1.4993385528638055e-06  1.2871874214789807e-05  -7.6561300030469207e-05  3.5537531675552259e-04  -1.3007805881171930e-03  3.5365149353065754e-03  -5.5224717049496934e-03  -4.6197464875886518e-03  5.3053119572397799e-02  -1.0424153557980889e-01  -1.5280728567423316e-01  7.2669591079771656e-01  1.3787430362817101e+00  5.9501949094391215e-01  -1.7172188247081457e-01  -7.1383169737830043e-02  4.5124263953313856e-02  -6.7374127222149093e-03  -3.1143390927819065e-03  2.4436882273389080e-03  -9.5342086942201254e-04  2.6919804968768849e-04  -5.9479638800159556e-05  1.0264508651534402e-05  -1.2481260460864420e-06  4.7250936312736472e-08  2.5344374886726872e-08  -8.7004892327152701e-09  1.6594844629843675e-09  -1.9158981257078559e-10  1.3354961997609704e-12  5.5847245637579154e-12  -1.5641425557017252e-12  2.4968832011305573e-13  -1.5305949688413905e-14  0.0000000000000000e+00  0.0000000000000000e+00  -1.8255337666761423e-10  -2.5505244897118359e-09  2.8684050629544341e-08  -1.7191007580771549e-07  6.1001064030726315e-07  6.2877955754521595e-08  -2.0511414990549236e-05  1.9098263029219045e-04  -1.1736189676763438e-03  5.5092760369979624e-03  -1.9932557174309348e-02  5.1180096111931930e-02  -6.1460685821720797e-02  -1.5280728567423338e-01  8.2867389727647123e-01  -4.6585009031856978e-01  -4.8243814595495520e+00  -4.4586016241817790e+00  -1.7186910189964663e-01  6.9870941091166772e-01  -1.6338630547141988e-01  -3.3733553738139653e-02  3.7262675644957326e-02  -1.5376449471904476e-02  4.3778712430548299e-03  -9.5342086942201134e-04  1.5876746093117971e-04  -1.7769489417022699e-05  2.5742322155204125e-07  4.7206608205814415e-07  -1.3960854143747356e-07  2.4038096975020030e-08  -2.2894785313577571e-09  -1.1639880780879362e-10  1.0175995600809449e-10  -2.3760050601409949e-11  3.2259124948902539e-12  -1.2392231938628523e-13  -6.7370253315223245e-14  0.0000000000000000e+00  0.0000000000000000e+00  -3.6863103155592025e-10  2.0832389824734259e-09  -5.0970234711304860e-09  -2.4311011601380127e-08  3.8218356146774102e-07  -2.5838029826623058e-06  1.0439458588217150e-05  -8.5179712741508288e-06  -2.7039755128778237e-04  2.8219646533750703e-03  -1.8110723101605421e-02  8.6386242949363229e-02  -3.0806177236184529e-01  7.2669591079771656e-01  -4.6585009031856783e-01  -3.7670474063261588e+00  9.8287871244913561e+00  2.2703932528760983e+01  8.1542784892027615e+00  -3.6391650489760572e+00  -1.7995019500618842e-01  5.5706193088588585e-01  -2.5014977676299149e-01  7.1992733268918849e-02  -1.5376449471904474e-02  2.4436882273389045e-03  -2.4368264129750078e-04  -4.7328508179140094e-06  8.6090683055771759e-06  -2.2015521242233022e-06  3.3447353645271594e-07  -2.3091090376827260e-08  -3.9786167828266947e-09  1.7576089726769410e-09  -3.4407532640834957e-10  3.7230609761475511e-11  7.0884673749631807e-13  -1.3302183556546570e-12  3.0687531049336997e-13  0.0000000000000000e+00  0.0000000000000000e+00  6.1759864369044757e-11  3.5244980705262612e-10  -5.1330518862844955e-09  3.2460778792407869e-08  -1.1040878338096194e-07  -1.2179654715759793e-07  4.7630217620527125e-06  -3.7907702054893076e-05  1.7631806871675195e-04  -2.9781102605805191e-04  -3.3222387382844040e-03  4.1353540005387247e-02  -2.8212155611004569e-01  1.3787430362817110e+00  -4.8243814595495538e+00  9.8287871244913472e+00  4.0615583831444599e+00  -7.7315167296217354e+01  -7.2246703408964223e+01  6.3076081504073418e+00  7.9123327217830184e+00  -4.1242522167485749e+00  1.2046104584380144e+00  -2.5014977676299194e-01  3.7262675644957402e-02  -3.1143390927819200e-03  -2.3598788122521254e-04  1.5387572662256614e-04  -3.3804098212757416e-05  4.3486369822327577e-06  -1.3524178043659009e-07  -9.4535394768800355e-08  2.8728321323830437e-08  -4.6411628107933403e-09  3.4075773457693502e-10  5.1903250595150879e-11  -2.3844706461525918e-11  4.5987590519228225e-12  -4.1081817539418167e-13  0.0000000000000000e+00  0.0000000000000000e+00  5.6737366221686738e-11  -4.1730982740539430e-10  1.5148401932358476e-09  9.7692459966883741e-10  -5.8853298137516567e-08  4.7303810577678375e-07  -2.1023813515958811e-06  2.2357585233662573e-06  5.2000766591549175e-05  -5.3305656184746695e-04  2.9243032314619061e-03  -7.5830934109845927e-03  -3.4531515780711224e-02  5.9501949094391171e-01  -4.4586016241817799e+00  2.2703932528761001e+01  -7.7315167296217339e+01  1.0983388763463037e+02  4.0091794184491403e+02  9.1523170981441908e+01  -6.9599986557621861e+01  2.0784372186064200e+01  -4.1242522167485571e+00  5.5706193088588363e-01  -3.3733553738139320e-02  -6.7374127222149223e-03  2.6852303489393395e-03  -4.9609420547861306e-04  4.9463659029856725e-05  1.8057536679636377e-06  -1.9176423408715875e-06  4.3842702094150177e-07  -5.5474717776015691e-08  1.1447592492676882e-09  1.3702293229404933e-09  -3.8683391153171913e-10  5.8136998211215940e-11  -3.1884251748494790e-12  -9.4230901286253299e-13  0.0000000000000000e+00  0.0000000000000000e+00  -2.2062949344211055e-11  1.9051843732420200e-11  6.0738944541666175e-10  -5.7762055511097555e-09  2.8888541498204346e-08  -5.2998539029690436e-08  -5.1863558012989271e-07  6.2437830921904989e-06  -3.6133296213987374e-05  9.8579960411308729e-05  3.9222734535523750e-04  -6.8841482257004554e-03  4.6954456559985737e-02  -1.7172188247081496e-01  -1.7186910189964447e-01  8.1542784892027562e+00  -7.2246703408964194e+01  4.0091794184491403e+02  -1.3040343333315552e+03  -1.2366263780139438e+03  3.8415568714149566e+02  -6.9599986557622174e+01  7.9123327217830424e+00  -1.7995019500619497e-01  -1.6338630547141858e-01  4.5124263953313551e-02  -6.6624632121937638e-03  3.8872863775231431e-04  9.3104997580576639e-05  -3.4655394015744422e-05  6.0308038990106936e-06  -5.0821637935350388e-07  -4.9338819938586907e-08  2.7648224429284655e-08  -5.569743899802341