<?xml version="1.0"?>
<VTKFile type="UnstructuredGrid"  version="0.1"  >
<UnstructuredGrid>
<Piece  NumberOfPoints="1681" NumberOfCells="3200">
<Points>
<DataArray  type="Float64"  NumberOfComponents="3"  format="ascii">-2 -2 0  -1.9 -2 0  -1.8 -2 0  -1.7 -2 0  -1.6 -2 0  -1.5 -2 0  -1.4 -2 0  -1.3 -2 0  -1.2 -2 0  -1.1 -2 0  -1 -2 0  -0.8999999999999999 -2 0  -0.8 -2 0  -0.7 -2 0  -0.6000000000000001 -2 0  -0.5 -2 0  -0.3999999999999999 -2 0  -0.3 -2 0  -0.2 -2 0  -0.1000000000000001 -2 0  0 -2 0  0.1000000000000001 -2 0  0.2000000000000002 -2 0  0.2999999999999998 -2 0  0.3999999999999999 -2 0  0.5 -2 0  0.6000000000000001 -2 0  0.7000000000000002 -2 0  0.7999999999999998 -2 0  0.8999999999999999 -2 0  1 -2 0  1.1 -2 0  1.2 -2 0  1.3 -2 0  1.4 -2 0  1.5 -2 0  1.6 -2 0  1.7 -2 0  1.8 -2 0  1.9 -2 0  2 -2 0  -2 -1.9 0  -1.9 -1.9 0  -1.8 -1.9 0  -1.7 -1.9 0  -1.6 -1.9 0  -1.5 -1.9 0  -1.4 -1.9 0  -1.3 -1.9 0  -1.2 -1.9 0  -1.1 -1.9 0  -1 -1.9 0  -0.8999999999999999 -1.9 0  -0.8 -1.9 0  -0.7 -1.9 0  -0.6000000000000001 -1.9 0  -0.5 -1.9 0  -0.3999999999999999 -1.9 0  -0.3 -1.9 0  -0.2 -1.9 0  -0.1000000000000001 -1.9 0  0 -1.9 0  0.1000000000000001 -1.9 0  0.2000000000000002 -1.9 0  0.2999999999999998 -1.9 0  0.3999999999999999 -1.9 0  0.5 -1.9 0  0.6000000000000001 -1.9 0  0.7000000000000002 -1.9 0  0.7999999999999998 -1.9 0  0.8999999999999999 -1.9 0  1 -1.9 0  1.1 -1.9 0  1.2 -1.9 0  1.3 -1.9 0  1.4 -1.9 0  1.5 -1.9 0  1.6 -1.9 0  1.7 -1.9 0  1.8 -1.9 0  1.9 -1.9 0  2 -1.9 0  -2 -1.8 0  -1.9 -1.8 0  -1.8 -1.8 0  -1.7 -1.8 0  -1.6 -1.8 0  -1.5 -1.8 0  -1.4 -1.8 0  -1.3 -1.8 0  -1.2 -1.8 0  -1.1 -1.8 0  -1 -1.8 0  -0.8999999999999999 -1.8 0  -0.8 -1.8 0  -0.7 -1.8 0  -0.6000000000000001 -1.8 0  -0.5 -1.8 0  -0.3999999999999999 -1.8 0  -0.3 -1.8 0  -0.2 -1.8 0  -0.1000000000000001 -1.8 0  0 -1.8 0  0.1000000000000001 -1.8 0  0.2000000000000002 -1.8 0  0.2999999999999998 -1.8 0  0.3999999999999999 -1.8 0  0.5 -1.8 0  0.6000000000000001 -1.8 0  0.7000000000000002 -1.8 0  0.7999999999999998 -1.8 0  0.8999999999999999 -1.8 0  1 -1.8 0  1.1 -1.8 0  1.2 -1.8 0  1.3 -1.8 0  1.4 -1.8 0  1.5 -1.8 0  1.6 -1.8 0  1.7 -1.8 0  1.8 -1.8 0  1.9 -1.8 0  2 -1.8 0  -2 -1.7 0  -1.9 -1.7 0  -1.8 -1.7 0  -1.7 -1.7 0  -1.6 -1.7 0  -1.5 -1.7 0  -1.4 -1.7 0  -1.3 -1.7 0  -1.2 -1.7 0  -1.1 -1.7 0  -1 -1.7 0  -0.8999999999999999 -1.7 0  -0.8 -1.7 0  -0.7 -1.7 0  -0.6000000000000001 -1.7 0  -0.5 -1.7 0  -0.3999999999999999 -1.7 0  -0.3 -1.7 0  -0.2 -1.7 0  -0.1000000000000001 -1.7 0  0 -1.7 0  0.1000000000000001 -1.7 0  0.2000000000000002 -1.7 0  0.2999999999999998 -1.7 0  0.3999999999999999 -1.7 0  0.5 -1.7 0  0.6000000000000001 -1.7 0  0.7000000000000002 -1.7 0  0.7999999999999998 -1.7 0  0.8999999999999999 -1.7 0  1 -1.7 0  1.1 -1.7 0  1.2 -1.7 0  1.3 -1.7 0  1.4 -1.7 0  1.5 -1.7 0  1.6 -1.7 0  1.7 -1.7 0  1.8 -1.7 0  1.9 -1.7 0  2 -1.7 0  -2 -1.6 0  -1.9 -1.6 0  -1.8 -1.6 0  -1.7 -1.6 0  -1.6 -1.6 0  -1.5 -1.6 0  -1.4 -1.6 0  -1.3 -1.6 0  -1.2 -1.6 0  -1.1 -1.6 0  -1 -1.6 0  -0.8999999999999999 -1.6 0  -0.8 -1.6 0  -0.7 -1.6 0  -0.6000000000000001 -1.6 0  -0.5 -1.6 0  -0.3999999999999999 -1.6 0  -0.3 -1.6 0  -0.2 -1.6 0  -0.1000000000000001 -1.6 0  0 -1.6 0  0.1000000000000001 -1.6 0  0.2000000000000002 -1.6 0  0.2999999999999998 -1.6 0  0.3999999999999999 -1.6 0  0.5 -1.6 0  0.6000000000000001 -1.6 0  0.7000000000000002 -1.6 0  0.7999999999999998 -1.6 0  0.8999999999999999 -1.6 0  1 -1.6 0  1.1 -1.6 0  1.2 -1.6 0  1.3 -1.6 0  1.4 -1.6 0  1.5 -1.6 0  1.6 -1.6 0  1.7 -1.6 0  1.8 -1.6 0  1.9 -1.6 0  2 -1.6 0  -2 -1.5 0  -1.9 -1.5 0  -1.8 -1.5 0  -1.7 -1.5 0  -1.6 -1.5 0  -1.5 -1.5 0  -1.4 -1.5 0  -1.3 -1.5 0  -1.2 -1.5 0  -1.1 -1.5 0  -1 -1.5 0  -0.8999999999999999 -1.5 0  -0.8 -1.5 0  -0.7 -1.5 0  -0.6000000000000001 -1.5 0  -0.5 -1.5 0  -0.3999999999999999 -1.5 0  -0.3 -1.5 0  -0.2 -1.5 0  -0.1000000000000001 -1.5 0  0 -1.5 0  0.1000000000000001 -1.5 0  0.2000000000000002 -1.5 0  0.2999999999999998 -1.5 0  0.3999999999999999 -1.5 0  0.5 -1.5 0  0.6000000000000001 -1.5 0  0.7000000000000002 -1.5 0  0.7999999999999998 -1.5 0  0.8999999999999999 -1.5 0  1 -1.5 0  1.1 -1.5 0  1.2 -1.5 0  1.3 -1.5 0  1.4 -1.5 0  1.5 -1.5 0  1.6 -1.5 0  1.7 -1.5 0  1.8 -1.5 0  1.9 -1.5 0  2 -1.5 0  -2 -1.4 0  -1.9 -1.4 0  -1.8 -1.4 0  -1.7 -1.4 0  -1.6 -1.4 0  -1.5 -1.4 0  -1.4 -1.4 0  -1.3 -1.4 0  -1.2 -1.4 0  -1.1 -1.4 0  -1 -1.4 0  -0.8999999999999999 -1.4 0  -0.8 -1.4 0  -0.7 -1.4 0  -0.6000000000000001 -1.4 0  -0.5 -1.4 0  -0.3999999999999999 -1.4 0  -0.3 -1.4 0  -0.2 -1.4 0  -0.1000000000000001 -1.4 0  0 -1.4 0  0.1000000000000001 -1.4 0  0.2000000000000002 -1.4 0  0.2999999999999998 -1.4 0  0.3999999999999999 -1.4 0  0.5 -1.4 0  0.6000000000000001 -1.4 0  0.7000000000000002 -1.4 0  0.7999999999999998 -1.4 0  0.8999999999999999 -1.4 0  1 -1.4 0  1.1 -1.4 0  1.2 -1.4 0  1.3 -1.4 0  1.4 -1.4 0  1.5 -1.4 0  1.6 -1.4 0  1.7 -1.4 0  1.8 -1.4 0  1.9 -1.4 0  2 -1.4 0  -2 -1.3 0  -1.9 -1.3 0  -1.8 -1.3 0  -1.7 -1.3 0  -1.6 -1.3 0  -1.5 -1.3 0  -1.4 -1.3 0  -1.3 -1.3 0  -1.2 -1.3 0  -1.1 -1.3 0  -1 -1.3 0  -0.8999999999999999 -1.3 0  -0.8 -1.3 0  -0.7 -1.3 0  -0.6000000000000001 -1.3 0  -0.5 -1.3 0  -0.3999999999999999 -1.3 0  -0.3 -1.3 0  -0.2 -1.3 0  -0.1000000000000001 -1.3 0  0 -1.3 0  0.1000000000000001 -1.3 0  0.2000000000000002 -1.3 0  0.2999999999999998 -1.3 0  0.3999999999999999 -1.3 0  0.5 -1.3 0  0.6000000000000001 -1.3 0  0.7000000000000002 -1.3 0  0.7999999999999998 -1.3 0  0.8999999999999999 -1.3 0  1 -1.3 0  1.1 -1.3 0  1.2 -1.3 0  1.3 -1.3 0  1.4 -1.3 0  1.5 -1.3 0  1.6 -1.3 0  1.7 -1.3 0  1.8 -1.3 0  1.9 -1.3 0  2 -1.3 0  -2 -1.2 0  -1.9 -1.2 0  -1.8 -1.2 0  -1.7 -1.2 0  -1.6 -1.2 0  -1.5 -1.2 0  -1.4 -1.2 0  -1.3 -1.2 0  -1.2 -1.2 0  -1.1 -1.2 0  -1 -1.2 0  -0.8999999999999999 -1.2 0  -0.8 -1.2 0  -0.7 -1.2 0  -0.6000000000000001 -1.2 0  -0.5 -1.2 0  -0.3999999999999999 -1.2 0  -0.3 -1.2 0  -0.2 -1.2 0  -0.1000000000000001 -1.2 0  0 -1.2 0  0.1000000000000001 -1.2 0  0.2000000000000002 -1.2 0  0.2999999999999998 -1.2 0  0.3999999999999999 -1.2 0  0.5 -1.2 0  0.6000000000000001 -1.2 0  0.7000000000000002 -1.2 0  0.7999999999999998 -1.2 0  0.8999999999999999 -1.2 0  1 -1.2 0  1.1 -1.2 0  1.2 -1.2 0  1.3 -1.2 0  1.4 -1.2 0  1.5 -1.2 0  1.6 -1.2 0  1.7 -1.2 0  1.8 -1.2 0  1.9 -1.2 0  2 -1.2 0  -2 -1.1 0  -1.9 -1.1 0  -1.8 -1.1 0  -1.7 -1.1 0  -1.6 -1.1 0  -1.5 -1.1 0  -1.4 -1.1 0  -1.3 -1.1 0  -1.2 -1.1 0  -1.1 -1.1 0  -1 -1.1 0  -0.8999999999999999 -1.1 0  -0.8 -1.1 0  -0.7 -1.1 0  -0.6000000000000001 -1.1 0  -0.5 -1.1 0  -0.3999999999999999 -1.1 0  -0.3 -1.1 0  -0.2 -1.1 0  -0.1000000000000001 -1.1 0  0 -1.1 0  0.1000000000000001 -1.1 0  0.2000000000000002 -1.1 0  0.2999999999999998 -1.1 0  0.3999999999999999 -1.1 0  0.5 -1.1 0  0.6000000000000001 -1.1 0  0.7000000000000002 -1.1 0  0.7999999999999998 -1.1 0  0.8999999999999999 -1.1 0  1 -1.1 0  1.1 -1.1 0  1.2 -1.1 0  1.3 -1.1 0  1.4 -1.1 0  1.5 -1.1 0  1.6 -1.1 0  1.7 -1.1 0  1.8 -1.1 0  1.9 -1.1 0  2 -1.1 0  -2 -1 0  -1.9 -1 0  -1.8 -1 0  -1.7 -1 0  -1.6 -1 0  -1.5 -1 0  -1.4 -1 0  -1.3 -1 0  -1.2 -1 0  -1.1 -1 0  -1 -1 0  -0.8999999999999999 -1 0  -0.8 -1 0  -0.7 -1 0  -0.6000000000000001 -1 0  -0.5 -1 0  -0.3999999999999999 -1 0  -0.3 -1 0  -0.2 -1 0  -0.1000000000000001 -1 0  0 -1 0  0.1000000000000001 -1 0  0.2000000000000002 -1 0  0.2999999999999998 -1 0  0.3999999999999999 -1 0  0.5 -1 0  0.6000000000000001 -1 0  0.7000000000000002 -1 0  0.7999999999999998 -1 0  0.8999999999999999 -1 0  1 -1 0  1.1 -1 0  1.2 -1 0  1.3 -1 0  1.4 -1 0  1.5 -1 0  1.6 -1 0  1.7 -1 0  1.8 -1 0  1.9 -1 0  2 -1 0  -2 -0.8999999999999999 0  -1.9 -0.8999999999999999 0  -1.8 -0.8999999999999999 0  -1.7 -0.8999999999999999 0  -1.6 -0.8999999999999999 0  -1.5 -0.8999999999999999 0  -1.4 -0.8999999999999999 0  -1.3 -0.8999999999999999 0  -1.2 -0.8999999999999999 0  -1.1 -0.8999999999999999 0  -1 -0.8999999999999999 0  -0.8999999999999999 -0.8999999999999999 0  -0.8 -0.8999999999999999 0  -0.7 -0.8999999999999999 0  -0.6000000000000001 -0.8999999999999999 0  -0.5 -0.8999999999999999 0  -0.3999999999999999 -0.8999999999999999 0  -0.3 -0.8999999999999999 0  -0.2 -0.8999999999999999 0  -0.1000000000000001 -0.8999999999999999 0  0 -0.8999999999999999 0  0.1000000000000001 -0.8999999999999999 0  0.2000000000000002 -0.8999999999999999 0  0.2999999999999998 -0.8999999999999999 0  0.3999999999999999 -0.8999999999999999 0  0.5 -0.8999999999999999 0  0.6000000000000001 -0.8999999999999999 0  0.7000000000000002 -0.8999999999999999 0  0.7999999999999998 -0.8999999999999999 0  0.8999999999999999 -0.8999999999999999 0  1 -0.8999999999999999 0  1.1 -0.8999999999999999 0  1.2 -0.8999999999999999 0  1.3 -0.8999999999999999 0  1.4 -0.8999999999999999 0  1.5 -0.8999999999999999 0  1.6 -0.8999999999999999 0  1.7 -0.8999999999999999 0  1.8 -0.8999999999999999 0  1.9 -0.8999999999999999 0  2 -0.8999999999999999 0  -2 -0.8 0  -1.9 -0.8 0  -1.8 -0.8 0  -1.7 -0.8 0  -1.6 -0.8 0  -1.5 -0.8 0  -1.4 -0.8 0  -1.3 -0.8 0  -1.2 -0.8 0  -1.1 -0.8 0  -1 -0.8 0  -0.8999999999999999 -0.8 0  -0.8 -0.8 0  -0.7 -0.8 0  -0.6000000000000001 -0.8 0  -0.5 -0.8 0  -0.3999999999999999 -0.8 0  -0.3 -0.8 0  -0.2 -0.8 0  -0.1000000000000001 -0.8 0  0 -0.8 0  0.1000000000000001 -0.8 0  0.2000000000000002 -0.8 0  0.2999999999999998 -0.8 0  0.3999999999999999 -0.8 0  0.5 -0.8 0  0.6000000000000001 -0.8 0  0.7000000000000002 -0.8 0  0.7999999999999998 -0.8 0  0.8999999999999999 -0.8 0  1 -0.8 0  1.1 -0.8 0  1.2 -0.8 0  1.3 -0.8 0  1.4 -0.8 0  1.5 -0.8 0  1.6 -0.8 0  1.7 -0.8 0  1.8 -0.8 0  1.9 -0.8 0  2 -0.8 0  -2 -0.7 0  -1.9 -0.7 0  -1.8 -0.7 0  -1.7 -0.7 0  -1.6 -0.7 0  -1.5 -0.7 0  -1.4 -0.7 0  -1.3 -0.7 0  -1.2 -0.7 0  -1.1 -0.7 0  -1 -0.7 0  -0.8999999999999999 -0.7 0  -0.8 -0.7 0  -0.7 -0.7 0  -0.6000000000000001 -0.7 0  -0.5 -0.7 0  -0.3999999999999999 -0.7 0  -0.3 -0.7 0  -0.2 -0.7 0  -0.1000000000000001 -0.7 0  0 -0.7 0  0.1000000000000001 -0.7 0  0.2000000000000002 -0.7 0  0.2999999999999998 -0.7 0  0.3999999999999999 -0.7 0  0.5 -0.7 0  0.600000000000000
[...]
<PointData  Scalars="f_1726"> 
<DataArray  type="Float64"  Name="f_1726"  format="ascii">0.0000000000000000e+00  0.0000000000000000e+00  0.0000000000000000e+00  0.0000000000000000e+00  0.0000000000000000e+00  0.0000000000000000e+00  0.0000000000000000e+00  0.0000000000000000e+00  0.0000000000000000e+00  0.0000000000000000e+00  0.0000000000000000e+00  0.0000000000000000e+00  0.0000000000000000e+00  0.0000000000000000e+00  0.0000000000000000e+00  0.0000000000000000e+00  0.0000000000000000e+00  0.0000000000000000e+00  0.0000000000000000e+00  0.0000000000000000e+00  0.0000000000000000e+00  0.0000000000000000e+00  0.0000000000000000e+00  0.0000000000000000e+00  0.0000000000000000e+00  0.0000000000000000e+00  0.0000000000000000e+00  0.0000000000000000e+00  0.0000000000000000e+00  0.0000000000000000e+00  0.0000000000000000e+00  0.0000000000000000e+00  0.0000000000000000e+00  0.0000000000000000e+00  0.0000000000000000e+00  0.0000000000000000e+00  0.0000000000000000e+00  0.0000000000000000e+00  0.0000000000000000e+00  0.0000000000000000e+00  0.0000000000000000e+00  0.0000000000000000e+00  -4.0237919918103293e-11  -4.6891631086833107e-11  3.0813824589350098e-10  -7.4252580549063096e-11  -1.5606125871464008e-09  8.4081247900906947e-10  7.6786596297044805e-09  1.0564502142262615e-09  -3.1872721861736351e-08  -6.3597761897555159e-08  -5.6058490991932844e-08  -1.9321760476803537e-08  5.2291667598715745e-09  5.2976924118235328e-09  -5.0284847213313976e-10  -1.0154046689383612e-09  1.7011930430445759e-10  1.5628469019984511e-10  -6.0773021956682400e-11  -1.1103040245333373e-11  1.3231500026739234e-11  -2.5956169973122956e-12  -1.1316103574332710e-12  8.4529677748957565e-13  -1.8557328034783349e-13  -4.2160674077145875e-14  4.6569460352619966e-14  -1.6705102511912999e-14  1.9606722126971730e-15  1.2551837569025321e-15  -9.3551492294519857e-16  3.5058756458220471e-16  -7.7531061480736557e-17  6.4191712078694076e-19  9.0904468909390469e-18  -5.4682509269624692e-18  2.2248634131225125e-18  -7.3752073428767707e-19  2.3378925237223740e-19  0.0000000000000000e+00  0.0000000000000000e+00  -4.6891631086833159e-11  3.3722583420724901e-10  -2.9999559312574844e-10  -1.4773004542494350e-09  3.1023073445975306e-09  5.7981478075701709e-09  -1.6704481376159917e-08  -3.2630394811354578e-08  4.8654248021020128e-08  2.0853150954626613e-07  2.7223601502121908e-07  1.5944096700317520e-07  1.2895880630057262e-08  -3.0908158758538993e-08  -7.0254923036835186e-09  5.7383410734292070e-09  9.7083302547027304e-10  -1.1494917976730846e-09  5.2478845842495979e-11  1.8020021345179902e-10  -6.0728324474759752e-11  -8.7826078977610021e-12  1.2667412705152640e-11  -3.6641243232783912e-12  -3.4134755600849982e-13  6.8777358474692962e-13  -2.7428334645703108e-13  3.8149551996672792e-14  1.8155933347777457e-14  -1.4624148096690681e-14  5.5092964904870329e-15  -1.1762644491879926e-15  -2.1964774637582876e-17  1.5510333040866181e-16  -8.7991367123514273e-17  3.4399634929252039e-17  -1.0877801203303837e-17  2.9549015903075916e-18  -7.3752073428767784e-19  0.0000000000000000e+00  0.0000000000000000e+00  3.0813824589350108e-10  -2.9999559312574829e-10  -1.3506229704578497e-09  3.9999472252847507e-09  2.2067743297917878e-09  -2.3729867191474930e-08  1.4724398865243641e-09  1.1854132660601833e-07  4.5018239454633824e-08  -4.8219568146084344e-07  -1.0261840316547364e-06  -9.0964470531799343e-07  -2.9520069402828299e-07  9.6994528473915170e-08  7.9011033906637788e-08  -1.4039896230193466e-08  -1.4139137525228862e-08  4.1726704298735339e-09  1.6730715158102510e-09  -1.1011719290992354e-09  4.4856430169200752e-11  1.6014001635338416e-10  -6.5680922651312788e-11  1.9525385146700700e-12  8.8858677878323415e-12  -4.3084751906020144e-12  7.9367770582697718e-13  2.0158956055867064e-13  -2.1093905216163647e-13  8.5480177191003463e-14  -1.9549458923535636e-14  2.2474652190556056e-16  2.2534675237086078e-15  -1.3362952269452816e-15  5.3053984741775116e-16  -1.6939401218208570e-16  4.5903275834828810e-17  -1.0877801203303791e-17  2.2248634131225056e-18  0.0000000000000000e+00  0.0000000000000000e+00  -7.4252580549063031e-11  -1.4773004542494355e-09  3.9999472252847499e-09  7.5068057860634112e-10  -2.4305326964797039e-08  2.7676792954721672e-08  1.0608494953797954e-07  -1.9347564966217137e-07  -5.3454153327427691e-07  5.8117416025383461e-07  3.0880996412473459e-06  4.1622743527756959e-06  2.3844689052519275e-06  1.1001410968315246e-07  -4.7353119696929800e-07  -6.6965373431703134e-08  8.9414139130026569e-08  2.6909666164499341e-09  -1.5910722601373805e-08  3.3134370180286355e-09  1.6314751381087437e-09  -1.0655450199487953e-09  1.4296898111085611e-10  1.0255277430025467e-10  -6.5447735675024366e-11  1.5383282771500227e-11  1.7311319280835765e-12  -2.9745452074437363e-12  1.3236025275662335e-12  -3.2716590547123017e-13  1.3815589956781033e-14  3.2387920853357103e-14  -2.0382940258760890e-14  8.2560033303763240e-15  -2.6591690474112858e-15  7.2325696744699939e-16  -1.6939401218208654e-16  3.4399634929252094e-17  -5.4682509269624915e-18  0.0000000000000000e+00  0.0000000000000000e+00  -1.5606125871464029e-09  3.1023073445975322e-09  2.2067743297917873e-09  -2.4305326964797039e-08  3.6148894524040836e-08  7.9969005683727163e-08  -3.0546694544616008e-07  -1.6981046258188632e-07  1.6479324841667634e-06  1.1346230998458837e-06  -6.7116100607754611e-06  -1.5512458910954251e-05  -1.3825885989652704e-05  -4.1299707202383152e-06  1.6802916717447086e-06  1.0527354983324743e-06  -3.0412413643973426e-07  -1.6211308488875896e-07  7.9574309824880989e-08  8.5667204646194008e-09  -1.5342018106232945e-08  3.7743356715181167e-09  9.3862687903905317e-10  -9.4776528016884782e-10  2.8030069526555041e-10  3.6786622950953147e-12  -4.0615534206239641e-11  2.0304673158996033e-11  -5.4436282962196886e-12  3.8555307819338636e-13  4.5899656192538230e-13  -3.1036063255895775e-13  1.2853752254985161e-13  -4.1773018967863657e-14  1.1386672890339988e-14  -2.6591690474112823e-15  5.3053984741775244e-16  -8.7991367123514113e-17  9.0904468909390407e-18  0.0000000000000000e+00  0.0000000000000000e+00  8.4081247900907257e-10  5.7981478075701775e-09  -2.3729867191474950e-08  2.7676792954721695e-08  7.9969005683727163e-08  -3.2996945178046061e-07  8.9357400635808823e-08  1.7393480466984155e-06  -1.8685327162209768e-06  -8.4967573895740935e-06  6.1805311439685554e-06  4.5449808286807695e-05  6.3645799902312008e-05  3.5455943902818671e-05  1.7319911885053346e-07  -7.1171588597368951e-06  -3.3549205589773267e-07  1.3029969266671476e-06  -1.4598598427950310e-07  -1.8370596357885553e-07  7.6157821154816525e-08  3.1532719359261026e-09  -1.2784215065919538e-08  4.8413839428854089e-09  -3.2062382922306536e-10  -5.2773959203673602e-10  3.0742533618878804e-10  -8.9961822893147734e-11  8.8299330238198534e-12  6.3711014453900019e-12  -4.7107120575654866e-12  2.0011598478029375e-12  -6.5685791623354391e-13  1.7945571392010243e-13  -4.1773018967863669e-14  8.2560033303763161e-15  -1.3362952269452853e-15  1.5510333040866181e-16  6.4191712078683965e-19  0.0000000000000000e+00  0.0000000000000000e+00  7.6786596297044838e-09  -1.6704481376159947e-08  1.4724398865243677e-09  1.0608494953797961e-07  -3.0546694544616013e-07  8.9357400635808995e-08  1.6547709221124819e-06  -3.3027583920116245e-06  -5.2451512552748411e-06  2.1649219956418502e-05  2.4069256500535146e-05  -9.1640850117817013e-05  -2.3523404801147172e-04  -2.1089028013404282e-04  -5.6499276417472701e-05  2.8755785824439803e-05  1.3119879015691830e-05  -5.7910692740352210e-06  -1.4285964676350409e-06  1.2783865675595292e-06  -1.3590518387476155e-07  -1.5280668911689077e-07  7.9132978794146471e-08  -1.0959213173527584e-08  -6.3064337811239259e-09  4.5710971879734163e-09  -1.4752644285179283e-09  1.8445221655395108e-10  8.5800096154516260e-11  -7.1206637282996204e-11  3.1153294791824805e-11  -1.0341011353427404e-11  2.8322788705124699e-12  -6.5685791623354502e-13  1.2853752254985186e-13  -2.0382940258760922e-14  2.2534675237086220e-15  -2.1964774637584534e-17  -7.7531061480736225e-17  0.0000000000000000e+00  0.0000000000000000e+00  1.0564502142262619e-09  -3.2630394811354578e-08  1.1854132660601841e-07  -1.9347564966217150e-07  -1.6981046258188667e-07  1.7393480466984162e-06  -3.3027583920116257e-06  -3.5632306682788338e-06  2.5375359024575813e-05  -1.0236711600995256e-05  -1.3071261058411035e-04  4.9880905919793043e-05  6.6702052656227614e-04  9.7889142521705185e-04  5.2606709116782943e-04  -2.3462994325651086e-05  -1.0441784429486826e-04  6.1584604900535469e-06  1.7198678247159106e-05  -4.7237958144525009e-06  -1.3998964825298861e-06  1.2076597083368540e-06  -2.6040043569584616e-07  -6.3605065695484053e-08  6.6213622325297159e-08  -2.3965745237611356e-08  3.6524365869370232e-09  1.1024089067428647e-09  -1.0705661704406849e-09  4.8490117282904133e-10  -1.6302420811603276e-10  4.4774826174363351e-11  -1.0341011353427362e-11  2.0011598478029310e-12  -3.1036063255895669e-13  3.2387920853356946e-14  2.2474652190557796e-16  -1.1762644491879895e-15  3.5058756458220362e-16  0.0000000000000000e+00  0.0000000000000000e+00  -3.1872721861736384e-08  4.8654248021020141e-08  4.5018239454633791e-08  -5.3454153327427702e-07  1.6479324841667647e-06  -1.8685327162209755e-06  -5.2451512552748479e-06  2.5375359024575833e-05  -2.2668644459420508e-05  -1.1153211299394203e-04  2.5725736651251207e-04  4.6697026400644852e-04  -1.2136286107004618e-03  -3.5830371546954837e-03  -3.2327668517304503e-03  -7.4481775147425332e-04  4.8567313890400358e-04  1.4323759169857948e-04  -9.9530192900349520e-05  -2.9264406469665941e-06  1.6612020997418884e-05  -5.2822004106822296e-06  -3.7252733366268303e-07  9.2131687643582205e-07  -3.8455570113277635e-07  6.9811802014294210e-08  1.3055305264238831e-08  -1.5979212469734835e-08  7.5450250608355809e-09  -2.5741784329220934e-09  7.0921091143069954e-10  -1.6302420811603348e-10  3.1153294791824876e-11  -4.7107120575655100e-12  4.5899656192538725e-13  1.3815589956780020e-14  -1.9549458923535528e-14  5.5092964904870006e-15  -9.3551492294519522e-16  0.0000000000000000e+00  0.0000000000000000e+00  -6.3597761897555145e-08  2.0853150954626613e-07  -4.8219568146084333e-07  5.8117416025383514e-07  1.1346230998458835e-06  -8.4967573895741003e-06  2.1649219956418512e-05  -1.0236711600995246e-05  -1.1153211299394202e-04  3.0943943746050234e-04  1.3942346802312837e-04  -1.9174029096535564e-03  1.2031045348709506e-05  9.7414310507817313e-03  1.5175457657013208e-02  7.7731819606223183e-03  -8.2032894801151786e-04  -1.4683194722472511e-03  2.7154130688050054e-04  1.8678671796619085e-04  -9.5459269229067177e-05  4.9739998764175052e-06  1.1978444344849856e-05  -6.0642379899816053e-06  1.3003194596669900e-06  1.3015404899894318e-07  -2.3610912130878827e-07  1.1733264934244293e-07  -4.0723983189192140e-08  1.1259539775364451e-08  -2.5741784329220905e-09  4.8490117282904247e-10  -7.1206637282996113e-11  6.3711014453900003e-12  3.8555307819338691e-13  -3.2716590547122987e-13  8.5480177191003677e-14  -1.4624148096690662e-14  1.2551837569025327e-15  0.0000000000000000e+00  0.0000000000000000e+00  -5.6058490991932778e-08  2.7223601502121887e-07  -1.0261840316547357e-06  3.0880996412473434e-06  -6.7116100607754611e-06  6.1805311439685597e-06  2.4069256500535163e-05  -1.3071261058411040e-04  2.5725736651251217e-04  1.3942346802312813e-04  -1.9252099415554746e-03  2.4358990545113330e-03  8.5145543236343126e-03  -1.5211805499980711e-02  -5.4904796086338845e-02  -4.9886502277360072e-02  -9.1512011670405111e-03  8.0550764868733363e-03  1.0804013869315041e-03  -1.5134286763648342e-03  2.5646036592681768e-04  1.3624905670501822e-04  -9.3114350708909128e-05  2.3713923691652871e-05  7.0907959092274074e-07  -3.4379987199408860e-06  1.8228702034405816e-06  -6.4573382043933152e-07  1.7925863404484465e-07  -4.0723983189192153e-08  7.5450250608355776e-09  -1.0705661704406888e-09  8.5800096154516609e-11  8.8299330238197484e-12  -5.4436282962196644e-12  1.3236025275662271e-12  -2.1093905216163599e-13  1.8155933347777284e-14  1.9606722126971931e-15  0.0000000000000000e+00  0.0000000000000000e+00  -1.9321760476803530e-08  1.5944096700317509e-07  -9.0964470531799290e-07  4.1622743527756942e-06  -1.5512458910954244e-05  4.5449808286807695e-05  -9.1640850117816999e-05  4.9880905919793036e-05  4.6697026400644868e-04  -1.9174029096535568e-03  2.4358990545113334e-03  6.4767197111421692e-03  -2.5861327029692911e-02  -1.2725223194069348e-02  1.4097703150334562e-01  2.3795336505608500e-01  1.1390950301000290e-01  -2.0887846641693828e-02  -1.8962582234424787e-02  6.6411743077511359e-03  1.0707640972539181e-03  -1.3665056095523989e-03  4.2385506881868507e-04  -1.3036772291292444e-05  -4.8946564380482929e-05  2.8273881244165228e-05  -1.0267672828530410e-05  2.8637693614575309e-06  -6.4573382043933258e-07  1.1733264934244317e-07  -1.5979212469734881e-08  1.1024089067428765e-09  1.8445221655394937e-10  -8.9961822893147553e-11  2.0304673158996001e-11  -2.9745452074437306e-12  2.0158956055867087e-13  3.8149551996672722e-14  -1.6705102511912986e-14  0.0000000000000000e+00  0.0000000000000000e+00  5.2291667598715844e-09  1.2895880630057196e-08  -2.9520069402828261e-07  2.3844689052519241e-06  -1.3825885989652696e-05  6.3645799902311981e-05  -2.3523404801147169e-04  6.6702052656227603e-04  -1.2136286107004618e-03  1.2031045348707823e-05  8.5145543236343161e-03  -2.5861327029692918e-02  7.7330155812176471e-03  1.4613632793794218e-01  -1.6929520848019547e-01  -8.4856492047711007e-01  -7.7711185646301240e-01  -9.5118043104664665e-02  1.2933738708115350e-01  -4.6900558623117631e-03  -1.8351944554796398e-02  7.3965434271215744e-03  -6.5003533586836608e-04  -6.7123077150703240e-04  4.3732949020748103e-04  -1.6383835807183577e-04  4.5950643375552397e-05  -1.0267672828530371e-05  1.8228702034405761e-06  -2.3610912130878735e-07  1.3055305264238725e-08  3.6524365869370380e-09  -1.4752644285179242e-09  3.0742533618878711e-10  -4.0615534206239409e-11  1.7311319280835409e-12  7.9367770582698385e-13  -2.7428334645703113e-13  4.6569460352619966e-14  0.0000000000000000e+00  0.0000000000000000e+00  5.2976924118235353e-09  -3.0908158758539013e-08  9.6994528473915289e-08  1.1001410968315220e-07  -4.1299707202383118e-06  3.5455943902818657e-05  -2.1089028013404273e-04  9.7889142521705185e-04  -3.5830371546954837e-03  9.7414310507817365e-03  -1.5211805499980708e-02  -1.2725223194069364e-02  1.4613632793794226e-01  -2.8713627683019799e-01  -4.2091201781496562e-01  2.0017045705781311e+00  3.7977869372462996e+00  1.6389981241232605e+00  -4.7301281306616988e-01  -1.9662697285542199e-01  1.2429606945244714e-01  -1.8558395113472563e-02  -8.5785356759589381e-03  6.7312087780467406e-03  -2.6262249224873646e-03  7.4151369017481776e-04  -1.6383835807183667e-04  2.8273881244165302e-05  -3.4379987199409084e-06  1.3015404899894738e-07  6.9811802014293350e-08  -2.3965745237611286e-08  4.5710971879733915e-09  -5.2773959203673313e-10  3.6786622950950263e-12  1.5383282771500217e-11  -4.3084751906020225e-12  6.8777358474692770e-13  -4.2160674077145686e-14  0.0000000000000000e+00  0.0000000000000000e+00  -5.0284847213314203e-10  -7.0254923036835137e-09  7.9011033906637788e-08  -4.7353119696929816e-07  1.6802916717447107e-06  1.7319911885051663e-07  -5.6499276417472606e-05  5.2606709116782932e-04  -3.2327668517304481e-03  1.5175457657013204e-02  -5.4904796086338865e-02  1.4097703150334562e-01  -1.6929520848019555e-01  -4.2091201781496568e-01  2.2826058369810158e+00  -1.2831973334916442e+00  -1.3288896048956653e+01  -1.2281345081073477e+01  -4.7341833317326137e-01  1.9246149600491642e+00  -4.5005222896190750e-01  -9.2920033945633723e-02  1.0264110068901165e-01  -4.2354867737438760e-02  1.2058970948392674e-02  -2.6262249224873612e-03  4.3732949020748189e-04  -4.8946564380482814e-05  7.0907959092273047e-07  1.3003194596669917e-06  -3.8455570113277609e-07  6.6213622325297304e-08  -6.3064337811239159e-09  -3.2062382922306562e-10  2.8030069526555026e-10  -6.5447735675024250e-11  8.8858677878323512e-12  -3.4134755600849831e-13  -1.8557328034783346e-13  0.0000000000000000e+00  0.0000000000000000e+00  -1.0154046689383616e-09  5.7383410734292144e-09  -1.4039896230193510e-08  -6.6965373431702883e-08  1.0527354983324739e-06  -7.1171588597369002e-06  2.8755785824439864e-05  -2.3462994325651445e-05  -7.4481775147425158e-04  7.7731819606223045e-03  -4.9886502277360016e-02  2.3795336505608491e-01  -8.4856492047710985e-01  2.0017045705781311e+00  -1.2831973334916431e+00  -1.0376439303958795e+01  2.7073673895779443e+01  6.2538628383129726e+01  2.2461192197554038e+01  -1.0024183710662555e+01  -4.9567793415116645e-01  1.5344429445396293e+00  -6.8904468022383225e-01  1.9830603295209839e-01  -4.2354867737438739e-02  6.7312087780467328e-03  -6.7123077150703489e-04  -1.3036772291292002e-05  2.3713923691652759e-05  -6.0642379899815765e-06  9.2131687643581602e-07  -6.3605065695483338e-08  -1.0959213173527703e-08  4.8413839428854254e-09  -9.4776528016884968e-10  1.0255277430025471e-10  1.9525385146700712e-12  -3.6641243232783863e-12  8.4529677748957555e-13  0.0000000000000000e+00  0.0000000000000000e+00  1.7011930430445831e-10  9.7083302547027077e-10  -1.4139137525228866e-08  8.9414139130026622e-08  -3.0412413643973485e-07  -3.3549205589772875e-07  1.3119879015691818e-05  -1.0441784429486827e-04  4.8567313890400413e-04  -8.2032894801152068e-04  -9.1512011670404885e-03  1.1390950301000279e-01  -7.7711185646301206e-01  3.7977869372462996e+00  -1.3288896048956659e+01  2.7073673895779446e+01  1.1187678172408598e+01  -2.1296682897522274e+02  -1.9900560093172416e+02  1.7374486186699944e+01  2.1794745694580744e+01  -1.1360370121555045e+01  3.3181337951587762e+00  -6.8904468022383358e-01  1.0264110068901186e-01  -8.5785356759589884e-03  -6.5003533586835882e-04  4.2385506881868301e-04  -9.3114350708908925e-05  1.1978444344849834e-05  -3.7252733366268282e-07  -2.6040043569584648e-07  7.9132978794146325e-08  -1.2784215065919510e-08  9.3862687903904883e-10  1.4296898111085688e-10  -6.5680922651313085e-11  1.2667412705152643e-11  -1.1316103574332724e-12  0.0000000000000000e+00  0.0000000000000000e+00  1.5628469019984516e-10  -1.1494917976730860e-09  4.1726704298735438e-09  2.6909666164498956e-09  -1.6211308488875885e-07  1.3029969266671481e-06  -5.7910692740352303e-06  6.1584604900536003e-06  1.4323759169857926e-04  -1.4683194722472511e-03  8.0550764868733433e-03  -2.0887846641693880e-02  -9.5118043104664290e-02  1.6389981241232590e+00  -1.2281345081073473e+01  6.2538628383129748e+01  -2.1296682897522277e+02  3.0254056974293792e+02  1.1043398823268333e+03  2.5210317953523224e+02  -1.9171514402996124e+02  5.7251144781826952e+01  -1.1360370121554999e+01  1.5344429445396242e+00  -9.2920033945633029e-02  -1.8558395113472577e-02  7.3965434271215866e-03  -1.3665056095523943e-03  1.3624905670501757e-04  4.9739998764176280e-06  -5.2822004106822397e-06  1.2076597083368585e-06  -1.5280668911689087e-07  3.1532719359261543e-09  3.7743356715181076e-09  -1.0655450199487920e-09  1.6014001635338400e-10  -8.7826078977609132e-12  -2.5956169973123033e-12  0.0000000000000000e+00  0.0000000000000000e+00  -6.0773021956682490e-11  5.2478845842496464e-11  1.6730715158102515e-09  -1.5910722601373815e-08  7.9574309824881041e-08  -1.4598598427950360e-07  -1.4285964676350379e-06  1.7198678247159103e-05  -9.9530192900349574e-05  2.7154130688050092e-04  1.0804013869315035e-03  -1.8962582234424791e-02  1.2933738708115353e-01  -4.7301281306617071e-01  -4.7341833317325738e-01  2.2461192197554016e+01  -1.9900560093172419e+02  1.1043398823268335e+03  -3.5919996885013161e+03  -3.4063225569147762e+03  1.0581677746343669e+03  -1.9171514402996206e+02  2.1794745694580818e+01  -4.9567793415118527e-01  -4.5005222896190378e-01  1.2429606945244637e-01  -1.8351944554796329e-02  1.0707640972539012e-03  2.5646036592681990e-04  -9.5459269229067434e-05  1.6612020997418898e-05  -1.3998964825298903e-06  -1.3590518387476137e-07  7.6157821154816551e-08  -1.534201810623296