<?xml version="1.0"?>
<VTKFile type="UnstructuredGrid"  version="0.1"  >
<UnstructuredGrid>
<Piece  NumberOfPoints="1681" NumberOfCells="3200">
<Points>
<DataArray  type="Float64"  NumberOfComponents="3"  format="ascii">-2 -2 0  -1.9 -2 0  -1.8 -2 0  -1.7 -2 0  -1.6 -2 0  -1.5 -2 0  -1.4 -2 0  -1.3 -2 0  -1.2 -2 0  -1.1 -2 0  -1 -2 0  -0.8999999999999999 -2 0  -0.8 -2 0  -0.7 -2 0  -0.6000000000000001 -2 0  -0.5 -2 0  -0.3999999999999999 -2 0  -0.3 -2 0  -0.2 -2 0  -0.1000000000000001 -2 0  0 -2 0  0.1000000000000001 -2 0  0.2000000000000002 -2 0  0.2999999999999998 -2 0  0.3999999999999999 -2 0  0.5 -2 0  0.6000000000000001 -2 0  0.7000000000000002 -2 0  0.7999999999999998 -2 0  0.8999999999999999 -2 0  1 -2 0  1.1 -2 0  1.2 -2 0  1.3 -2 0  1.4 -2 0  1.5 -2 0  1.6 -2 0  1.7 -2 0  1.8 -2 0  1.9 -2 0  2 -2 0  -2 -1.9 0  -1.9 -1.9 0  -1.8 -1.9 0  -1.7 -1.9 0  -1.6 -1.9 0  -1.5 -1.9 0  -1.4 -1.9 0  -1.3 -1.9 0  -1.2 -1.9 0  -1.1 -1.9 0  -1 -1.9 0  -0.8999999999999999 -1.9 0  -0.8 -1.9 0  -0.7 -1.9 0  -0.6000000000000001 -1.9 0  -0.5 -1.9 0  -0.3999999999999999 -1.9 0  -0.3 -1.9 0  -0.2 -1.9 0  -0.1000000000000001 -1.9 0  0 -1.9 0  0.1000000000000001 -1.9 0  0.2000000000000002 -1.9 0  0.2999999999999998 -1.9 0  0.3999999999999999 -1.9 0  0.5 -1.9 0  0.6000000000000001 -1.9 0  0.7000000000000002 -1.9 0  0.7999999999999998 -1.9 0  0.8999999999999999 -1.9 0  1 -1.9 0  1.1 -1.9 0  1.2 -1.9 0  1.3 -1.9 0  1.4 -1.9 0  1.5 -1.9 0  1.6 -1.9 0  1.7 -1.9 0  1.8 -1.9 0  1.9 -1.9 0  2 -1.9 0  -2 -1.8 0  -1.9 -1.8 0  -1.8 -1.8 0  -1.7 -1.8 0  -1.6 -1.8 0  -1.5 -1.8 0  -1.4 -1.8 0  -1.3 -1.8 0  -1.2 -1.8 0  -1.1 -1.8 0  -1 -1.8 0  -0.8999999999999999 -1.8 0  -0.8 -1.8 0  -0.7 -1.8 0  -0.6000000000000001 -1.8 0  -0.5 -1.8 0  -0.3999999999999999 -1.8 0  -0.3 -1.8 0  -0.2 -1.8 0  -0.1000000000000001 -1.8 0  0 -1.8 0  0.1000000000000001 -1.8 0  0.2000000000000002 -1.8 0  0.2999999999999998 -1.8 0  0.3999999999999999 -1.8 0  0.5 -1.8 0  0.6000000000000001 -1.8 0  0.7000000000000002 -1.8 0  0.7999999999999998 -1.8 0  0.8999999999999999 -1.8 0  1 -1.8 0  1.1 -1.8 0  1.2 -1.8 0  1.3 -1.8 0  1.4 -1.8 0  1.5 -1.8 0  1.6 -1.8 0  1.7 -1.8 0  1.8 -1.8 0  1.9 -1.8 0  2 -1.8 0  -2 -1.7 0  -1.9 -1.7 0  -1.8 -1.7 0  -1.7 -1.7 0  -1.6 -1.7 0  -1.5 -1.7 0  -1.4 -1.7 0  -1.3 -1.7 0  -1.2 -1.7 0  -1.1 -1.7 0  -1 -1.7 0  -0.8999999999999999 -1.7 0  -0.8 -1.7 0  -0.7 -1.7 0  -0.6000000000000001 -1.7 0  -0.5 -1.7 0  -0.3999999999999999 -1.7 0  -0.3 -1.7 0  -0.2 -1.7 0  -0.1000000000000001 -1.7 0  0 -1.7 0  0.1000000000000001 -1.7 0  0.2000000000000002 -1.7 0  0.2999999999999998 -1.7 0  0.3999999999999999 -1.7 0  0.5 -1.7 0  0.6000000000000001 -1.7 0  0.7000000000000002 -1.7 0  0.7999999999999998 -1.7 0  0.8999999999999999 -1.7 0  1 -1.7 0  1.1 -1.7 0  1.2 -1.7 0  1.3 -1.7 0  1.4 -1.7 0  1.5 -1.7 0  1.6 -1.7 0  1.7 -1.7 0  1.8 -1.7 0  1.9 -1.7 0  2 -1.7 0  -2 -1.6 0  -1.9 -1.6 0  -1.8 -1.6 0  -1.7 -1.6 0  -1.6 -1.6 0  -1.5 -1.6 0  -1.4 -1.6 0  -1.3 -1.6 0  -1.2 -1.6 0  -1.1 -1.6 0  -1 -1.6 0  -0.8999999999999999 -1.6 0  -0.8 -1.6 0  -0.7 -1.6 0  -0.6000000000000001 -1.6 0  -0.5 -1.6 0  -0.3999999999999999 -1.6 0  -0.3 -1.6 0  -0.2 -1.6 0  -0.1000000000000001 -1.6 0  0 -1.6 0  0.1000000000000001 -1.6 0  0.2000000000000002 -1.6 0  0.2999999999999998 -1.6 0  0.3999999999999999 -1.6 0  0.5 -1.6 0  0.6000000000000001 -1.6 0  0.7000000000000002 -1.6 0  0.7999999999999998 -1.6 0  0.8999999999999999 -1.6 0  1 -1.6 0  1.1 -1.6 0  1.2 -1.6 0  1.3 -1.6 0  1.4 -1.6 0  1.5 -1.6 0  1.6 -1.6 0  1.7 -1.6 0  1.8 -1.6 0  1.9 -1.6 0  2 -1.6 0  -2 -1.5 0  -1.9 -1.5 0  -1.8 -1.5 0  -1.7 -1.5 0  -1.6 -1.5 0  -1.5 -1.5 0  -1.4 -1.5 0  -1.3 -1.5 0  -1.2 -1.5 0  -1.1 -1.5 0  -1 -1.5 0  -0.8999999999999999 -1.5 0  -0.8 -1.5 0  -0.7 -1.5 0  -0.6000000000000001 -1.5 0  -0.5 -1.5 0  -0.3999999999999999 -1.5 0  -0.3 -1.5 0  -0.2 -1.5 0  -0.1000000000000001 -1.5 0  0 -1.5 0  0.1000000000000001 -1.5 0  0.2000000000000002 -1.5 0  0.2999999999999998 -1.5 0  0.3999999999999999 -1.5 0  0.5 -1.5 0  0.6000000000000001 -1.5 0  0.7000000000000002 -1.5 0  0.7999999999999998 -1.5 0  0.8999999999999999 -1.5 0  1 -1.5 0  1.1 -1.5 0  1.2 -1.5 0  1.3 -1.5 0  1.4 -1.5 0  1.5 -1.5 0  1.6 -1.5 0  1.7 -1.5 0  1.8 -1.5 0  1.9 -1.5 0  2 -1.5 0  -2 -1.4 0  -1.9 -1.4 0  -1.8 -1.4 0  -1.7 -1.4 0  -1.6 -1.4 0  -1.5 -1.4 0  -1.4 -1.4 0  -1.3 -1.4 0  -1.2 -1.4 0  -1.1 -1.4 0  -1 -1.4 0  -0.8999999999999999 -1.4 0  -0.8 -1.4 0  -0.7 -1.4 0  -0.6000000000000001 -1.4 0  -0.5 -1.4 0  -0.3999999999999999 -1.4 0  -0.3 -1.4 0  -0.2 -1.4 0  -0.1000000000000001 -1.4 0  0 -1.4 0  0.1000000000000001 -1.4 0  0.2000000000000002 -1.4 0  0.2999999999999998 -1.4 0  0.3999999999999999 -1.4 0  0.5 -1.4 0  0.6000000000000001 -1.4 0  0.7000000000000002 -1.4 0  0.7999999999999998 -1.4 0  0.8999999999999999 -1.4 0  1 -1.4 0  1.1 -1.4 0  1.2 -1.4 0  1.3 -1.4 0  1.4 -1.4 0  1.5 -1.4 0  1.6 -1.4 0  1.7 -1.4 0  1.8 -1.4 0  1.9 -1.4 0  2 -1.4 0  -2 -1.3 0  -1.9 -1.3 0  -1.8 -1.3 0  -1.7 -1.3 0  -1.6 -1.3 0  -1.5 -1.3 0  -1.4 -1.3 0  -1.3 -1.3 0  -1.2 -1.3 0  -1.1 -1.3 0  -1 -1.3 0  -0.8999999999999999 -1.3 0  -0.8 -1.3 0  -0.7 -1.3 0  -0.6000000000000001 -1.3 0  -0.5 -1.3 0  -0.3999999999999999 -1.3 0  -0.3 -1.3 0  -0.2 -1.3 0  -0.1000000000000001 -1.3 0  0 -1.3 0  0.1000000000000001 -1.3 0  0.2000000000000002 -1.3 0  0.2999999999999998 -1.3 0  0.3999999999999999 -1.3 0  0.5 -1.3 0  0.6000000000000001 -1.3 0  0.7000000000000002 -1.3 0  0.7999999999999998 -1.3 0  0.8999999999999999 -1.3 0  1 -1.3 0  1.1 -1.3 0  1.2 -1.3 0  1.3 -1.3 0  1.4 -1.3 0  1.5 -1.3 0  1.6 -1.3 0  1.7 -1.3 0  1.8 -1.3 0  1.9 -1.3 0  2 -1.3 0  -2 -1.2 0  -1.9 -1.2 0  -1.8 -1.2 0  -1.7 -1.2 0  -1.6 -1.2 0  -1.5 -1.2 0  -1.4 -1.2 0  -1.3 -1.2 0  -1.2 -1.2 0  -1.1 -1.2 0  -1 -1.2 0  -0.8999999999999999 -1.2 0  -0.8 -1.2 0  -0.7 -1.2 0  -0.6000000000000001 -1.2 0  -0.5 -1.2 0  -0.3999999999999999 -1.2 0  -0.3 -1.2 0  -0.2 -1.2 0  -0.1000000000000001 -1.2 0  0 -1.2 0  0.1000000000000001 -1.2 0  0.2000000000000002 -1.2 0  0.2999999999999998 -1.2 0  0.3999999999999999 -1.2 0  0.5 -1.2 0  0.6000000000000001 -1.2 0  0.7000000000000002 -1.2 0  0.7999999999999998 -1.2 0  0.8999999999999999 -1.2 0  1 -1.2 0  1.1 -1.2 0  1.2 -1.2 0  1.3 -1.2 0  1.4 -1.2 0  1.5 -1.2 0  1.6 -1.2 0  1.7 -1.2 0  1.8 -1.2 0  1.9 -1.2 0  2 -1.2 0  -2 -1.1 0  -1.9 -1.1 0  -1.8 -1.1 0  -1.7 -1.1 0  -1.6 -1.1 0  -1.5 -1.1 0  -1.4 -1.1 0  -1.3 -1.1 0  -1.2 -1.1 0  -1.1 -1.1 0  -1 -1.1 0  -0.8999999999999999 -1.1 0  -0.8 -1.1 0  -0.7 -1.1 0  -0.6000000000000001 -1.1 0  -0.5 -1.1 0  -0.3999999999999999 -1.1 0  -0.3 -1.1 0  -0.2 -1.1 0  -0.1000000000000001 -1.1 0  0 -1.1 0  0.1000000000000001 -1.1 0  0.2000000000000002 -1.1 0  0.2999999999999998 -1.1 0  0.3999999999999999 -1.1 0  0.5 -1.1 0  0.6000000000000001 -1.1 0  0.7000000000000002 -1.1 0  0.7999999999999998 -1.1 0  0.8999999999999999 -1.1 0  1 -1.1 0  1.1 -1.1 0  1.2 -1.1 0  1.3 -1.1 0  1.4 -1.1 0  1.5 -1.1 0  1.6 -1.1 0  1.7 -1.1 0  1.8 -1.1 0  1.9 -1.1 0  2 -1.1 0  -2 -1 0  -1.9 -1 0  -1.8 -1 0  -1.7 -1 0  -1.6 -1 0  -1.5 -1 0  -1.4 -1 0  -1.3 -1 0  -1.2 -1 0  -1.1 -1 0  -1 -1 0  -0.8999999999999999 -1 0  -0.8 -1 0  -0.7 -1 0  -0.6000000000000001 -1 0  -0.5 -1 0  -0.3999999999999999 -1 0  -0.3 -1 0  -0.2 -1 0  -0.1000000000000001 -1 0  0 -1 0  0.1000000000000001 -1 0  0.2000000000000002 -1 0  0.2999999999999998 -1 0  0.3999999999999999 -1 0  0.5 -1 0  0.6000000000000001 -1 0  0.7000000000000002 -1 0  0.7999999999999998 -1 0  0.8999999999999999 -1 0  1 -1 0  1.1 -1 0  1.2 -1 0  1.3 -1 0  1.4 -1 0  1.5 -1 0  1.6 -1 0  1.7 -1 0  1.8 -1 0  1.9 -1 0  2 -1 0  -2 -0.8999999999999999 0  -1.9 -0.8999999999999999 0  -1.8 -0.8999999999999999 0  -1.7 -0.8999999999999999 0  -1.6 -0.8999999999999999 0  -1.5 -0.8999999999999999 0  -1.4 -0.8999999999999999 0  -1.3 -0.8999999999999999 0  -1.2 -0.8999999999999999 0  -1.1 -0.8999999999999999 0  -1 -0.8999999999999999 0  -0.8999999999999999 -0.8999999999999999 0  -0.8 -0.8999999999999999 0  -0.7 -0.8999999999999999 0  -0.6000000000000001 -0.8999999999999999 0  -0.5 -0.8999999999999999 0  -0.3999999999999999 -0.8999999999999999 0  -0.3 -0.8999999999999999 0  -0.2 -0.8999999999999999 0  -0.1000000000000001 -0.8999999999999999 0  0 -0.8999999999999999 0  0.1000000000000001 -0.8999999999999999 0  0.2000000000000002 -0.8999999999999999 0  0.2999999999999998 -0.8999999999999999 0  0.3999999999999999 -0.8999999999999999 0  0.5 -0.8999999999999999 0  0.6000000000000001 -0.8999999999999999 0  0.7000000000000002 -0.8999999999999999 0  0.7999999999999998 -0.8999999999999999 0  0.8999999999999999 -0.8999999999999999 0  1 -0.8999999999999999 0  1.1 -0.8999999999999999 0  1.2 -0.8999999999999999 0  1.3 -0.8999999999999999 0  1.4 -0.8999999999999999 0  1.5 -0.8999999999999999 0  1.6 -0.8999999999999999 0  1.7 -0.8999999999999999 0  1.8 -0.8999999999999999 0  1.9 -0.8999999999999999 0  2 -0.8999999999999999 0  -2 -0.8 0  -1.9 -0.8 0  -1.8 -0.8 0  -1.7 -0.8 0  -1.6 -0.8 0  -1.5 -0.8 0  -1.4 -0.8 0  -1.3 -0.8 0  -1.2 -0.8 0  -1.1 -0.8 0  -1 -0.8 0  -0.8999999999999999 -0.8 0  -0.8 -0.8 0  -0.7 -0.8 0  -0.6000000000000001 -0.8 0  -0.5 -0.8 0  -0.3999999999999999 -0.8 0  -0.3 -0.8 0  -0.2 -0.8 0  -0.1000000000000001 -0.8 0  0 -0.8 0  0.1000000000000001 -0.8 0  0.2000000000000002 -0.8 0  0.2999999999999998 -0.8 0  0.3999999999999999 -0.8 0  0.5 -0.8 0  0.6000000000000001 -0.8 0  0.7000000000000002 -0.8 0  0.7999999999999998 -0.8 0  0.8999999999999999 -0.8 0  1 -0.8 0  1.1 -0.8 0  1.2 -0.8 0  1.3 -0.8 0  1.4 -0.8 0  1.5 -0.8 0  1.6 -0.8 0  1.7 -0.8 0  1.8 -0.8 0  1.9 -0.8 0  2 -0.8 0  -2 -0.7 0  -1.9 -0.7 0  -1.8 -0.7 0  -1.7 -0.7 0  -1.6 -0.7 0  -1.5 -0.7 0  -1.4 -0.7 0  -1.3 -0.7 0  -1.2 -0.7 0  -1.1 -0.7 0  -1 -0.7 0  -0.8999999999999999 -0.7 0  -0.8 -0.7 0  -0.7 -0.7 0  -0.6000000000000001 -0.7 0  -0.5 -0.7 0  -0.3999999999999999 -0.7 0  -0.3 -0.7 0  -0.2 -0.7 0  -0.1000000000000001 -0.7 0  0 -0.7 0  0.1000000000000001 -0.7 0  0.2000000000000002 -0.7 0  0.2999999999999998 -0.7 0  0.3999999999999999 -0.7 0  0.5 -0.7 0  0.600000000000000
[...]
<PointData  Scalars="f_1726"> 
<DataArray  type="Float64"  Name="f_1726"  format="ascii">0.0000000000000000e+00  0.0000000000000000e+00  0.0000000000000000e+00  0.0000000000000000e+00  0.0000000000000000e+00  0.0000000000000000e+00  0.0000000000000000e+00  0.0000000000000000e+00  0.0000000000000000e+00  0.0000000000000000e+00  0.0000000000000000e+00  0.0000000000000000e+00  0.0000000000000000e+00  0.0000000000000000e+00  0.0000000000000000e+00  0.0000000000000000e+00  0.0000000000000000e+00  0.0000000000000000e+00  0.0000000000000000e+00  0.0000000000000000e+00  0.0000000000000000e+00  0.0000000000000000e+00  0.0000000000000000e+00  0.0000000000000000e+00  0.0000000000000000e+00  0.0000000000000000e+00  0.0000000000000000e+00  0.0000000000000000e+00  0.0000000000000000e+00  0.0000000000000000e+00  0.0000000000000000e+00  0.0000000000000000e+00  0.0000000000000000e+00  0.0000000000000000e+00  0.0000000000000000e+00  0.0000000000000000e+00  0.0000000000000000e+00  0.0000000000000000e+00  0.0000000000000000e+00  0.0000000000000000e+00  0.0000000000000000e+00  0.0000000000000000e+00  -2.0748763277386272e-14  -2.4179762649050178e-14  1.5889209814438803e-13  -3.8288490550288631e-14  -8.0473297835263325e-13  4.3356662380011521e-13  3.9595160800715350e-12  5.4476065000226148e-13  -1.6435232294838633e-11  -3.2794312162996849e-11  -2.8906672155182642e-11  -9.9633041432438987e-12  2.6964302195387094e-12  2.7317656079900429e-12  -2.5929481280148880e-13  -5.2359543309981193e-13  8.7722356948644476e-14  8.0588510724117214e-14  -3.1337729405423003e-14  -5.7253047418603708e-15  6.8228492531003379e-15  -1.3384350569215887e-15  -5.8351712703861280e-16  4.3587896121284878e-16  -9.5691230371302292e-17  -2.1740235276132302e-17  2.4013634670449532e-17  -8.6140192696246029e-18  1.0110245183797348e-18  6.4723799576612512e-19  -4.8240012699859159e-19  1.8078117358742484e-19  -3.9979045750437253e-20  3.3100583752880639e-22  4.6875069837018858e-21  -2.8197144448773108e-21  1.1472552352942966e-21  -3.8030403060209755e-22  1.2055389205360603e-22  0.0000000000000000e+00  0.0000000000000000e+00  -2.4179762649050165e-14  1.7389117079676161e-13  -1.5469332308166324e-13  -7.6177291165108495e-13  1.5997109402713166e-12  2.9898264262026123e-12  -8.6136989797405819e-12  -1.6825927855277750e-11  2.5088659569929654e-11  1.0752968682918545e-10  1.4037904152975176e-10  8.2216051122912476e-11  6.6497864450022350e-12  -1.5937853416032854e-11  -3.6227090518823152e-12  2.9589869650274309e-12  5.0061197667150579e-13  -5.9273772719264068e-13  2.7060821028338188e-14  9.2920597760911699e-14  -3.1314681060145782e-14  -4.5287691958142375e-15  6.5319765060200602e-15  -1.8894129805256629e-15  -1.7601654482512732e-16  3.5465181419412886e-16  -1.4143475204854772e-16  1.9671892213324261e-17  9.3621430700137221e-18  -7.5409709947545654e-18  2.8408796711835267e-18  -6.0654309808957990e-19  -1.1326179641590075e-20  7.9979340202813603e-20  -4.5372923118672132e-20  1.7738240033984414e-20  -5.6091597827420137e-21  1.5237008704736850e-21  -3.8030403060209792e-22  0.0000000000000000e+00  0.0000000000000000e+00  1.5889209814438811e-13  -1.5469332308166342e-13  -6.9645141568120914e-13  2.0625807265482380e-12  1.1379275635682726e-12  -1.2236353120684308e-11  7.5926655025550034e-13  6.1126070366997800e-11  2.3213744535254786e-11  -2.4864516029586541e-10  -5.2915383288137001e-10  -4.6906009792716217e-10  -1.5222082384425849e-10  5.0015421140135180e-11  4.0742196469574466e-11  -7.2397003600648240e-12  -7.2908743308421938e-12  2.1516457898471957e-12  8.6272264814729102e-13  -5.6782149104838203e-13  2.3130307256032418e-14  8.2576517307949313e-14  -3.3868498140712178e-14  1.0068303608468025e-15  4.5820153630987177e-15  -2.2216737842870762e-15  4.0926148444701220e-16  1.0395005705407614e-16  -1.0877114095773408e-16  4.4078023045301769e-17  -1.0080717299279007e-17  1.1589099013878750e-19  1.1620050016967120e-18  -6.8906328629861660e-19  2.7357392543392780e-19  -8.7348358626050363e-20  2.3670115301485096e-20  -5.6091597827419881e-21  1.1472552352942929e-21  0.0000000000000000e+00  0.0000000000000000e+00  -3.8288490550288643e-14  -7.6177291165108495e-13  2.0625807265482397e-12  3.8708993044708877e-13  -1.2533090095076126e-11  1.4271593225085903e-11  5.4702914806157815e-11  -9.9766102794315053e-11  -2.7563740268912663e-10  2.9968360935614112e-10  1.5923847098367337e-09  2.1462850320556514e-09  1.2295561241251350e-09  5.6728994034335228e-11  -2.4417730166893945e-10  -3.4530827735234397e-11  4.6106578328009514e-11  1.3876022772973540e-12  -8.2043956919238730e-12  1.7085803754650306e-12  8.4127339341737580e-13  -5.4945040462612276e-13  7.3722238900914155e-14  5.2881541633514602e-14  -3.3748254813516677e-14  7.9324202966900788e-15  8.9266161498500701e-16  -1.5338301406421989e-15  6.8251827066900829e-16  -1.6870374857523866e-16  7.1240363849353385e-18  1.6700895677529509e-17  -1.0510503604234808e-17  4.2572245053408244e-18  -1.3712057977049201e-18  3.7294889091735698e-19  -8.7348358626050784e-20  1.7738240033984438e-20  -2.8197144448773213e-21  0.0000000000000000e+00  0.0000000000000000e+00  -8.0473297835263516e-13  1.5997109402713182e-12  1.1379275635682710e-12  -1.2533090095076134e-11  1.8640249216289104e-11  4.1236176517988921e-11  -1.5751463676622869e-10  -8.7563102101354789e-11  8.4975965657975810e-10  5.8507065364392129e-10  -3.4608550502756282e-09  -7.9990302294120866e-09  -7.1293455547231399e-09  -2.1296275998155663e-09  8.6644573588678639e-10  5.4284514937797543e-10  -1.5682221463661144e-10  -8.3593934014724230e-11  4.1032650814910064e-11  4.4174464123817252e-12  -7.9111420901353172e-12  1.9462436810132114e-12  4.8400481333556966e-13  -4.8871704801772586e-13  1.4453760990600016e-13  1.8969095145507267e-15  -2.0943480834621999e-14  1.0470145018882136e-14  -2.8070177364592728e-15  1.9881121008700596e-16  2.3668248825753058e-16  -1.6003807623983223e-16  6.6280628647721755e-17  -2.1540340149541833e-17  5.8715604782642239e-18  -1.3712057977049174e-18  2.7357392543392833e-19  -4.5372923118672029e-20  4.6875069837018790e-21  0.0000000000000000e+00  0.0000000000000000e+00  4.3356662380011879e-13  2.9898264262026176e-12  -1.2236353120684318e-11  1.4271593225085926e-11  4.1236176517988953e-11  -1.7014940279458725e-10  4.6077321010841399e-11  8.9689827285760836e-10  -9.6351260412638420e-10  -4.3813698138590456e-09  3.1870031526411381e-09  2.3436283860222292e-08  3.2819083055504382e-08  1.8282927852960178e-08  8.9310469432709247e-11  -3.6699770934678631e-09  -1.7299714456993709e-10  6.7189295166361247e-10  -7.5277962573529100e-11  -9.4728344772785402e-11  3.9270931650516901e-11  1.6259909329537715e-12  -6.5922058752002919e-12  2.4964692402172101e-12  -1.6533031397195714e-13  -2.7212996818824602e-13  1.5852448484003858e-13  -4.6388992547606203e-14  4.5531724910060715e-15  3.2852711068480566e-15  -2.4290880231704278e-15  1.0319020477893209e-15  -3.3871008835810250e-16  9.2536695099572932e-17  -2.1540340149541833e-17  4.2572245053408190e-18  -6.8906328629861833e-19  7.9979340202813591e-20  3.3100583752877179e-22  0.0000000000000000e+00  0.0000000000000000e+00  3.9595160800715407e-12  -8.6136989797406094e-12  7.5926655025551185e-13  5.4702914806157906e-11  -1.5751463676622887e-10  4.6077321010841348e-11  8.5328591068065584e-10  -1.7030739207624625e-09  -2.7046726563223664e-09  1.1163463243876547e-08  1.2411359891583464e-08  -4.7254786268848674e-08  -1.2129890379287310e-07  -1.0874599156489377e-07  -2.9133964034814159e-08  1.4827978040139369e-08  6.7652916571878563e-09  -2.9861763663345421e-09  -7.3665860427675216e-10  6.5920257113860649e-10  -7.0079777834599336e-11  -7.8795072561916147e-11  4.0805077592876910e-11  -5.6511400267893226e-12  -3.2519250974049929e-12  2.3570953385320309e-12  -7.6072303094115502e-13  9.5113151600693136e-14  4.4242989893871097e-14  -3.6717843858993357e-14  1.6064258298187715e-14  -5.3323630311341130e-15  1.4604702216072272e-15  -3.3871008835810309e-16  6.6280628647721866e-17  -1.0510503604234822e-17  1.1620050016967184e-18  -1.1326179641590759e-20  -3.9979045750437121e-20  0.0000000000000000e+00  0.0000000000000000e+00  5.4476065000225856e-13  -1.6825927855277750e-11  6.1126070366997904e-11  -9.9766102794315286e-11  -8.7563102101355048e-11  8.9689827285760970e-10  -1.7030739207624633e-09  -1.8373869670528745e-09  1.3084854250697292e-08  -5.2785806567591765e-09  -6.7402217110101594e-08  2.5721188150327857e-08  3.4395045854672946e-07  5.0476730649672384e-07  2.7126753979530744e-07  -1.2098739597684041e-08  -5.3843268678370728e-08  3.1756223761399775e-09  8.8685325772440676e-09  -2.4358346883802603e-09  -7.2185939998827517e-10  6.2273212578876886e-10  -1.3427600155719079e-10  -3.2798078380896814e-11  3.4143185785002396e-11  -1.2357984103388627e-11  1.8833861760812672e-12  5.6845934102570136e-13  -5.5203957084416786e-13  2.5004025229023320e-13  -8.4063756515432731e-14  2.3088227994111863e-14  -5.3323630311340909e-15  1.0319020477893176e-15  -1.6003807623983159e-16  1.6700895677529395e-17  1.1589099013880013e-19  -6.0654309808957884e-19  1.8078117358742441e-19  0.0000000000000000e+00  0.0000000000000000e+00  -1.6435232294838656e-11  2.5088659569929690e-11  2.3213744535254690e-11  -2.7563740268912689e-10  8.4975965657975986e-10  -9.6351260412638502e-10  -2.7046726563223713e-09  1.3084854250697300e-08  -1.1689131512390618e-08  -5.7511755454755661e-08  1.3265527169386345e-07  2.4079414356330075e-07  -6.2581000214073746e-07  -1.8476002210891769e-06  -1.6669826440844056e-06  -3.8406675199881574e-07  2.5043831812912774e-07  7.3860748483661359e-08  -5.1322941534878635e-08  -1.5090249285453939e-09  8.5660216019104223e-09  -2.7237771268501559e-09  -1.9209445906385770e-10  4.7507887613314007e-10  -1.9829691062592552e-10  3.5998594283961819e-11  6.7319940740732877e-12  -8.2397126284955168e-12  3.8906071493718441e-12  -1.3273802186385811e-12  3.6570601425135929e-13  -8.4063756515433110e-14  1.6064258298187743e-14  -2.4290880231704392e-15  2.3668248825753280e-16  7.1240363849348655e-18  -1.0080717299278956e-17  2.8408796711835102e-18  -4.8240012699858976e-19  0.0000000000000000e+00  0.0000000000000000e+00  -3.2794312162996849e-11  1.0752968682918549e-10  -2.4864516029586561e-10  2.9968360935614194e-10  5.8507065364392098e-10  -4.3813698138590522e-09  1.1163463243876564e-08  -5.2785806567591690e-09  -5.7511755454755714e-08  1.5956306015875649e-07  7.1893988039441114e-08  -9.8871261637643264e-07  6.2038324154916271e-09  5.0231882579177260e-06  7.8252548638753845e-06  4.0082567076346089e-06  -4.2300425038175402e-07  -7.5714185045455568e-07  1.4002081389800585e-07  9.6316941887862211e-08  -4.9223761663064635e-08  2.5648529095835016e-09  6.1767086034389416e-09  -3.1270363569477489e-09  6.7051231049025232e-10  6.7114193719974785e-11  -1.2175013707564061e-10  6.0502813536830459e-11  -2.0999402767950916e-11  5.8060040351699247e-12  -1.3273802186385793e-12  2.5004025229023371e-13  -3.6717843858993313e-14  3.2852711068480546e-15  1.9881121008700665e-16  -1.6870374857523859e-16  4.4078023045301886e-17  -7.5409709947545592e-18  6.4723799576612512e-19  0.0000000000000000e+00  0.0000000000000000e+00  -2.8906672155182610e-11  1.4037904152975171e-10  -5.2915383288137011e-10  1.5923847098367341e-09  -3.4608550502756324e-09  3.1870031526411472e-09  1.2411359891583474e-08  -6.7402217110101700e-08  1.3265527169386355e-07  7.1893988039441313e-08  -9.9273832787348880e-07  1.2560761826787586e-06  4.3905468382338179e-06  -7.8439977012514517e-06  -2.8311767087047460e-05  -2.5724073923216011e-05  -4.7188350467698453e-06  4.1536161796519950e-06  5.5711111975040388e-07  -7.8040250109882359e-07  1.3224429675981684e-07  7.0257096542103213e-08  -4.8014599773520001e-08  1.2228131823353462e-08  3.6563829857076411e-10  -1.7728108643090364e-09  9.3996663877182904e-10  -3.3297392628066780e-10  9.2435070470695925e-11  -2.0999402767950926e-11  3.8906071493718433e-12  -5.5203957084416978e-13  4.4242989893871274e-14  4.5531724910060313e-15  -2.8070177364592629e-15  6.8251827066900533e-16  -1.0877114095773386e-16  9.3621430700136327e-18  1.0110245183797477e-18  0.0000000000000000e+00  0.0000000000000000e+00  -9.9633041432438841e-12  8.2216051122912386e-11  -4.6906009792716186e-10  2.1462850320556514e-09  -7.9990302294120866e-09  2.3436283860222319e-08  -4.7254786268848734e-08  2.5721188150327939e-08  2.4079414356330128e-07  -9.8871261637643391e-07  1.2560761826787579e-06  3.3397333752336994e-06  -1.3335444617174507e-05  -6.5617865993828290e-06  7.2695086131813766e-05  1.2270112502472800e-04  5.8737661335617966e-05  -1.0770859582825139e-05  -9.7780931695983285e-06  3.4245347144148127e-06  5.5214163219829296e-07  -7.0464133005709383e-07  2.1856170758176954e-07  -6.7224375097858066e-09  -2.5239393080929887e-08  1.4579482986748015e-08  -5.2945458751951997e-09  1.4767083557711602e-09  -3.3297392628066827e-10  6.0502813536830562e-11  -8.2397126284955362e-12  5.6845934102570611e-13  9.5113151600692593e-14  -4.6388992547606178e-14  1.0470145018882125e-14  -1.5338301406421960e-15  1.0395005705407612e-16  1.9671892213324267e-17  -8.6140192696246044e-18  0.0000000000000000e+00  0.0000000000000000e+00  2.6964302195387179e-12  6.6497864450021833e-12  -1.5222082384425813e-10  1.2295561241251331e-09  -7.1293455547231349e-09  3.2819083055504382e-08  -1.2129890379287313e-07  3.4395045854672972e-07  -6.2581000214073852e-07  6.2038324154912499e-09  4.3905468382338239e-06  -1.3335444617174514e-05  3.9875448343650070e-06  7.5355487579432964e-05  -8.7297410301047005e-05  -4.3756418563158149e-04  -4.0071927133954259e-04  -4.9047807734688142e-05  6.6693080381005664e-05  -2.4184366150856341e-06  -9.4632166379920852e-06  3.8140423002135865e-06  -3.3519201125008702e-07  -3.4612147970976067e-07  2.2550981971740971e-07  -8.4483574556216990e-08  2.3694540467883001e-08  -5.2945458751951799e-09  9.3996663877182594e-10  -1.2175013707564010e-10  6.7319940740732158e-12  1.8833861760812793e-12  -7.6072303094115351e-13  1.5852448484003813e-13  -2.0943480834621876e-14  8.9266161498498591e-16  4.0926148444701605e-16  -1.4143475204854782e-16  2.4013634670449526e-17  0.0000000000000000e+00  0.0000000000000000e+00  2.7317656079900425e-12  -1.5937853416032861e-11  5.0015421140135258e-11  5.6728994034334569e-11  -2.1296275998155626e-09  1.8282927852960165e-08  -1.0874599156489373e-07  5.0476730649672395e-07  -1.8476002210891783e-06  5.0231882579177345e-06  -7.8439977012514568e-06  -6.5617865993828443e-06  7.5355487579433004e-05  -1.4806239110832907e-04  -2.1704411748979326e-04  1.0321829351696151e-03  1.9583363727363290e-03  8.4515263608876700e-04  -2.4390999598030802e-04  -1.0139108885424017e-04  6.4093514938829761e-05  -9.5696732783744511e-06  -4.4235389495619587e-06  3.4709611677396979e-06  -1.3542180942943476e-06  3.8236300623125401e-07  -8.4483574556217414e-08  1.4579482986748045e-08  -1.7728108643090459e-09  6.7114193719976543e-11  3.5998594283961425e-11  -1.2357984103388598e-11  2.3570953385320175e-12  -2.7212996818824435e-13  1.8969095145505299e-15  7.9324202966900820e-15  -2.2216737842870805e-15  3.5465181419412787e-16  -2.1740235276132185e-17  0.0000000000000000e+00  0.0000000000000000e+00  -2.5929481280149017e-13  -3.6227090518823108e-12  4.0742196469574460e-11  -2.4417730166893961e-10  8.6644573588678835e-10  8.9310469432698158e-11  -2.9133964034814103e-08  2.7126753979530717e-07  -1.6669826440844045e-06  7.8252548638753845e-06  -2.8311767087047504e-05  7.2695086131813847e-05  -8.7297410301046937e-05  -2.1704411748979342e-04  1.1770302307747063e-03  -6.6168325214079505e-04  -6.8524456258869269e-03  -6.3328999693256895e-03  -2.4411910322848058e-04  9.9243152447873149e-04  -2.3207032521055905e-04  -4.7914399948821520e-05  5.2927087311203613e-05  -2.1840371622533576e-05  6.2182323063997963e-06  -1.3542180942943457e-06  2.2550981971741008e-07  -2.5239393080929827e-08  3.6563829857075548e-10  6.7051231049025325e-10  -1.9829691062592536e-10  3.4143185785002461e-11  -3.2519250974049844e-12  -1.6533031397195802e-13  1.4453760990600019e-13  -3.3748254813516633e-14  4.5820153630987240e-15  -1.7601654482512672e-16  -9.5691230371302267e-17  0.0000000000000000e+00  0.0000000000000000e+00  -5.2359543309981213e-13  2.9589869650274350e-12  -7.2397003600648531e-12  -3.4530827735234255e-11  5.4284514937797491e-10  -3.6699770934678623e-09  1.4827978040139374e-08  -1.2098739597684137e-08  -3.8406675199881521e-07  4.0082567076346039e-06  -2.5724073923215998e-05  1.2270112502472800e-04  -4.3756418563158154e-04  1.0321829351696149e-03  -6.6168325214079396e-04  -5.3506315241495326e-03  1.3960593685160831e-02  3.2248167863920582e-02  1.1582158341769778e-02  -5.1689902282447053e-03  -2.5559731065768386e-04  7.9123855019613723e-04  -3.5530725709989749e-04  1.0225689952599818e-04  -2.1840371622533576e-05  3.4709611677396967e-06  -3.4612147970976188e-07  -6.7224375097856188e-09  1.2228131823353417e-08  -3.1270363569477374e-09  4.7507887613313697e-10  -3.2798078380896427e-11  -5.6511400267893856e-12  2.4964692402172206e-12  -4.8871704801772687e-13  5.2881541633514640e-14  1.0068303608467992e-15  -1.8894129805256602e-15  4.3587896121284848e-16  0.0000000000000000e+00  0.0000000000000000e+00  8.7722356948644867e-14  5.0061197667150448e-13  -7.2908743308421922e-12  4.6106578328009533e-11  -1.5682221463661165e-10  -1.7299714456993618e-10  6.7652916571878579e-09  -5.3843268678370748e-08  2.5043831812912795e-07  -4.2300425038175476e-07  -4.7188350467698436e-06  5.8737661335617966e-05  -4.0071927133954264e-04  1.9583363727363298e-03  -6.8524456258869304e-03  1.3960593685160829e-02  5.7689484569616164e-03  -1.0981676809676394e-01  -1.0261763314332342e-01  8.9591882902441983e-03  1.1238503879626136e-02  -5.8579974033296988e-03  1.7110022779152148e-03  -3.5530725709989819e-04  5.2927087311203748e-05  -4.4235389495619816e-06  -3.3519201125008385e-07  2.1856170758176872e-07  -4.8014599773519929e-08  6.1767086034389308e-09  -1.9209445906385749e-10  -1.3427600155719104e-10  4.0805077592876858e-11  -6.5922058752002911e-12  4.8400481333556784e-13  7.3722238900914433e-14  -3.3868498140712304e-14  6.5319765060200594e-15  -5.8351712703861339e-16  0.0000000000000000e+00  0.0000000000000000e+00  8.0588510724117264e-14  -5.9273772719264149e-13  2.1516457898472001e-12  1.3876022772973441e-12  -8.3593934014724269e-11  6.7189295166361319e-10  -2.9861763663345479e-09  3.1756223761399998e-09  7.3860748483661293e-08  -7.5714185045455632e-07  4.1536161796520009e-06  -1.0770859582825165e-05  -4.9047807734688014e-05  8.4515263608876613e-04  -6.3328999693256904e-03  3.2248167863920603e-02  -1.0981676809676391e-01  1.5600564532605427e-01  5.6945505241852934e-01  1.2999750494805207e-01  -9.8858294570491029e-02  2.9521666449339925e-02  -5.8579974033296754e-03  7.9123855019613441e-04  -4.7914399948821073e-05  -9.5696732783744698e-06  3.8140423002135967e-06  -7.0464133005709213e-07  7.0257096542102895e-08  2.5648529095835690e-09  -2.7237771268501621e-09  6.2273212578877165e-10  -7.8795072561916302e-11  1.6259909329538072e-12  1.9462436810132053e-12  -5.4945040462612105e-13  8.2576517307949186e-14  -4.5287691958141894e-15  -1.3384350569215926e-15  0.0000000000000000e+00  0.0000000000000000e+00  -3.1337729405423053e-14  2.7060821028338365e-14  8.6272264814729193e-13  -8.2043956919238827e-12  4.1032650814910135e-11  -7.5277962573529410e-11  -7.3665860427675112e-10  8.8685325772440758e-09  -5.1322941534878694e-08  1.4002081389800616e-07  5.5711111975040377e-07  -9.7780931695983387e-06  6.6693080381005718e-05  -2.4390999598030834e-04  -2.4411910322847787e-04  1.1582158341769774e-02  -1.0261763314332331e-01  5.6945505241852901e-01  -1.8522217694366401e+00  -1.7564769879679560e+00  5.4564631343602654e-01  -9.8858294570491431e-02  1.1238503879626171e-02  -2.5559731065769292e-04  -2.3207032521055721e-04  6.4093514938829340e-05  -9.4632166379920547e-06  5.5214163219828365e-07  1.3224429675981809e-07  -4.9223761663064794e-08  8.5660216019104339e-09  -7.2185939998827807e-10  -7.0079777834599207e-11  3.9270931650516940e-11  -7.911142090135325