<?xml version="1.0"?>
<VTKFile type="UnstructuredGrid"  version="0.1"  >
<UnstructuredGrid>
<Piece  NumberOfPoints="1681" NumberOfCells="3200">
<Points>
<DataArray  type="Float64"  NumberOfComponents="3"  format="ascii">-2 -2 0  -1.9 -2 0  -1.8 -2 0  -1.7 -2 0  -1.6 -2 0  -1.5 -2 0  -1.4 -2 0  -1.3 -2 0  -1.2 -2 0  -1.1 -2 0  -1 -2 0  -0.8999999999999999 -2 0  -0.8 -2 0  -0.7 -2 0  -0.6000000000000001 -2 0  -0.5 -2 0  -0.3999999999999999 -2 0  -0.3 -2 0  -0.2 -2 0  -0.1000000000000001 -2 0  0 -2 0  0.1000000000000001 -2 0  0.2000000000000002 -2 0  0.2999999999999998 -2 0  0.3999999999999999 -2 0  0.5 -2 0  0.6000000000000001 -2 0  0.7000000000000002 -2 0  0.7999999999999998 -2 0  0.8999999999999999 -2 0  1 -2 0  1.1 -2 0  1.2 -2 0  1.3 -2 0  1.4 -2 0  1.5 -2 0  1.6 -2 0  1.7 -2 0  1.8 -2 0  1.9 -2 0  2 -2 0  -2 -1.9 0  -1.9 -1.9 0  -1.8 -1.9 0  -1.7 -1.9 0  -1.6 -1.9 0  -1.5 -1.9 0  -1.4 -1.9 0  -1.3 -1.9 0  -1.2 -1.9 0  -1.1 -1.9 0  -1 -1.9 0  -0.8999999999999999 -1.9 0  -0.8 -1.9 0  -0.7 -1.9 0  -0.6000000000000001 -1.9 0  -0.5 -1.9 0  -0.3999999999999999 -1.9 0  -0.3 -1.9 0  -0.2 -1.9 0  -0.1000000000000001 -1.9 0  0 -1.9 0  0.1000000000000001 -1.9 0  0.2000000000000002 -1.9 0  0.2999999999999998 -1.9 0  0.3999999999999999 -1.9 0  0.5 -1.9 0  0.6000000000000001 -1.9 0  0.7000000000000002 -1.9 0  0.7999999999999998 -1.9 0  0.8999999999999999 -1.9 0  1 -1.9 0  1.1 -1.9 0  1.2 -1.9 0  1.3 -1.9 0  1.4 -1.9 0  1.5 -1.9 0  1.6 -1.9 0  1.7 -1.9 0  1.8 -1.9 0  1.9 -1.9 0  2 -1.9 0  -2 -1.8 0  -1.9 -1.8 0  -1.8 -1.8 0  -1.7 -1.8 0  -1.6 -1.8 0  -1.5 -1.8 0  -1.4 -1.8 0  -1.3 -1.8 0  -1.2 -1.8 0  -1.1 -1.8 0  -1 -1.8 0  -0.8999999999999999 -1.8 0  -0.8 -1.8 0  -0.7 -1.8 0  -0.6000000000000001 -1.8 0  -0.5 -1.8 0  -0.3999999999999999 -1.8 0  -0.3 -1.8 0  -0.2 -1.8 0  -0.1000000000000001 -1.8 0  0 -1.8 0  0.1000000000000001 -1.8 0  0.2000000000000002 -1.8 0  0.2999999999999998 -1.8 0  0.3999999999999999 -1.8 0  0.5 -1.8 0  0.6000000000000001 -1.8 0  0.7000000000000002 -1.8 0  0.7999999999999998 -1.8 0  0.8999999999999999 -1.8 0  1 -1.8 0  1.1 -1.8 0  1.2 -1.8 0  1.3 -1.8 0  1.4 -1.8 0  1.5 -1.8 0  1.6 -1.8 0  1.7 -1.8 0  1.8 -1.8 0  1.9 -1.8 0  2 -1.8 0  -2 -1.7 0  -1.9 -1.7 0  -1.8 -1.7 0  -1.7 -1.7 0  -1.6 -1.7 0  -1.5 -1.7 0  -1.4 -1.7 0  -1.3 -1.7 0  -1.2 -1.7 0  -1.1 -1.7 0  -1 -1.7 0  -0.8999999999999999 -1.7 0  -0.8 -1.7 0  -0.7 -1.7 0  -0.6000000000000001 -1.7 0  -0.5 -1.7 0  -0.3999999999999999 -1.7 0  -0.3 -1.7 0  -0.2 -1.7 0  -0.1000000000000001 -1.7 0  0 -1.7 0  0.1000000000000001 -1.7 0  0.2000000000000002 -1.7 0  0.2999999999999998 -1.7 0  0.3999999999999999 -1.7 0  0.5 -1.7 0  0.6000000000000001 -1.7 0  0.7000000000000002 -1.7 0  0.7999999999999998 -1.7 0  0.8999999999999999 -1.7 0  1 -1.7 0  1.1 -1.7 0  1.2 -1.7 0  1.3 -1.7 0  1.4 -1.7 0  1.5 -1.7 0  1.6 -1.7 0  1.7 -1.7 0  1.8 -1.7 0  1.9 -1.7 0  2 -1.7 0  -2 -1.6 0  -1.9 -1.6 0  -1.8 -1.6 0  -1.7 -1.6 0  -1.6 -1.6 0  -1.5 -1.6 0  -1.4 -1.6 0  -1.3 -1.6 0  -1.2 -1.6 0  -1.1 -1.6 0  -1 -1.6 0  -0.8999999999999999 -1.6 0  -0.8 -1.6 0  -0.7 -1.6 0  -0.6000000000000001 -1.6 0  -0.5 -1.6 0  -0.3999999999999999 -1.6 0  -0.3 -1.6 0  -0.2 -1.6 0  -0.1000000000000001 -1.6 0  0 -1.6 0  0.1000000000000001 -1.6 0  0.2000000000000002 -1.6 0  0.2999999999999998 -1.6 0  0.3999999999999999 -1.6 0  0.5 -1.6 0  0.6000000000000001 -1.6 0  0.7000000000000002 -1.6 0  0.7999999999999998 -1.6 0  0.8999999999999999 -1.6 0  1 -1.6 0  1.1 -1.6 0  1.2 -1.6 0  1.3 -1.6 0  1.4 -1.6 0  1.5 -1.6 0  1.6 -1.6 0  1.7 -1.6 0  1.8 -1.6 0  1.9 -1.6 0  2 -1.6 0  -2 -1.5 0  -1.9 -1.5 0  -1.8 -1.5 0  -1.7 -1.5 0  -1.6 -1.5 0  -1.5 -1.5 0  -1.4 -1.5 0  -1.3 -1.5 0  -1.2 -1.5 0  -1.1 -1.5 0  -1 -1.5 0  -0.8999999999999999 -1.5 0  -0.8 -1.5 0  -0.7 -1.5 0  -0.6000000000000001 -1.5 0  -0.5 -1.5 0  -0.3999999999999999 -1.5 0  -0.3 -1.5 0  -0.2 -1.5 0  -0.1000000000000001 -1.5 0  0 -1.5 0  0.1000000000000001 -1.5 0  0.2000000000000002 -1.5 0  0.2999999999999998 -1.5 0  0.3999999999999999 -1.5 0  0.5 -1.5 0  0.6000000000000001 -1.5 0  0.7000000000000002 -1.5 0  0.7999999999999998 -1.5 0  0.8999999999999999 -1.5 0  1 -1.5 0  1.1 -1.5 0  1.2 -1.5 0  1.3 -1.5 0  1.4 -1.5 0  1.5 -1.5 0  1.6 -1.5 0  1.7 -1.5 0  1.8 -1.5 0  1.9 -1.5 0  2 -1.5 0  -2 -1.4 0  -1.9 -1.4 0  -1.8 -1.4 0  -1.7 -1.4 0  -1.6 -1.4 0  -1.5 -1.4 0  -1.4 -1.4 0  -1.3 -1.4 0  -1.2 -1.4 0  -1.1 -1.4 0  -1 -1.4 0  -0.8999999999999999 -1.4 0  -0.8 -1.4 0  -0.7 -1.4 0  -0.6000000000000001 -1.4 0  -0.5 -1.4 0  -0.3999999999999999 -1.4 0  -0.3 -1.4 0  -0.2 -1.4 0  -0.1000000000000001 -1.4 0  0 -1.4 0  0.1000000000000001 -1.4 0  0.2000000000000002 -1.4 0  0.2999999999999998 -1.4 0  0.3999999999999999 -1.4 0  0.5 -1.4 0  0.6000000000000001 -1.4 0  0.7000000000000002 -1.4 0  0.7999999999999998 -1.4 0  0.8999999999999999 -1.4 0  1 -1.4 0  1.1 -1.4 0  1.2 -1.4 0  1.3 -1.4 0  1.4 -1.4 0  1.5 -1.4 0  1.6 -1.4 0  1.7 -1.4 0  1.8 -1.4 0  1.9 -1.4 0  2 -1.4 0  -2 -1.3 0  -1.9 -1.3 0  -1.8 -1.3 0  -1.7 -1.3 0  -1.6 -1.3 0  -1.5 -1.3 0  -1.4 -1.3 0  -1.3 -1.3 0  -1.2 -1.3 0  -1.1 -1.3 0  -1 -1.3 0  -0.8999999999999999 -1.3 0  -0.8 -1.3 0  -0.7 -1.3 0  -0.6000000000000001 -1.3 0  -0.5 -1.3 0  -0.3999999999999999 -1.3 0  -0.3 -1.3 0  -0.2 -1.3 0  -0.1000000000000001 -1.3 0  0 -1.3 0  0.1000000000000001 -1.3 0  0.2000000000000002 -1.3 0  0.2999999999999998 -1.3 0  0.3999999999999999 -1.3 0  0.5 -1.3 0  0.6000000000000001 -1.3 0  0.7000000000000002 -1.3 0  0.7999999999999998 -1.3 0  0.8999999999999999 -1.3 0  1 -1.3 0  1.1 -1.3 0  1.2 -1.3 0  1.3 -1.3 0  1.4 -1.3 0  1.5 -1.3 0  1.6 -1.3 0  1.7 -1.3 0  1.8 -1.3 0  1.9 -1.3 0  2 -1.3 0  -2 -1.2 0  -1.9 -1.2 0  -1.8 -1.2 0  -1.7 -1.2 0  -1.6 -1.2 0  -1.5 -1.2 0  -1.4 -1.2 0  -1.3 -1.2 0  -1.2 -1.2 0  -1.1 -1.2 0  -1 -1.2 0  -0.8999999999999999 -1.2 0  -0.8 -1.2 0  -0.7 -1.2 0  -0.6000000000000001 -1.2 0  -0.5 -1.2 0  -0.3999999999999999 -1.2 0  -0.3 -1.2 0  -0.2 -1.2 0  -0.1000000000000001 -1.2 0  0 -1.2 0  0.1000000000000001 -1.2 0  0.2000000000000002 -1.2 0  0.2999999999999998 -1.2 0  0.3999999999999999 -1.2 0  0.5 -1.2 0  0.6000000000000001 -1.2 0  0.7000000000000002 -1.2 0  0.7999999999999998 -1.2 0  0.8999999999999999 -1.2 0  1 -1.2 0  1.1 -1.2 0  1.2 -1.2 0  1.3 -1.2 0  1.4 -1.2 0  1.5 -1.2 0  1.6 -1.2 0  1.7 -1.2 0  1.8 -1.2 0  1.9 -1.2 0  2 -1.2 0  -2 -1.1 0  -1.9 -1.1 0  -1.8 -1.1 0  -1.7 -1.1 0  -1.6 -1.1 0  -1.5 -1.1 0  -1.4 -1.1 0  -1.3 -1.1 0  -1.2 -1.1 0  -1.1 -1.1 0  -1 -1.1 0  -0.8999999999999999 -1.1 0  -0.8 -1.1 0  -0.7 -1.1 0  -0.6000000000000001 -1.1 0  -0.5 -1.1 0  -0.3999999999999999 -1.1 0  -0.3 -1.1 0  -0.2 -1.1 0  -0.1000000000000001 -1.1 0  0 -1.1 0  0.1000000000000001 -1.1 0  0.2000000000000002 -1.1 0  0.2999999999999998 -1.1 0  0.3999999999999999 -1.1 0  0.5 -1.1 0  0.6000000000000001 -1.1 0  0.7000000000000002 -1.1 0  0.7999999999999998 -1.1 0  0.8999999999999999 -1.1 0  1 -1.1 0  1.1 -1.1 0  1.2 -1.1 0  1.3 -1.1 0  1.4 -1.1 0  1.5 -1.1 0  1.6 -1.1 0  1.7 -1.1 0  1.8 -1.1 0  1.9 -1.1 0  2 -1.1 0  -2 -1 0  -1.9 -1 0  -1.8 -1 0  -1.7 -1 0  -1.6 -1 0  -1.5 -1 0  -1.4 -1 0  -1.3 -1 0  -1.2 -1 0  -1.1 -1 0  -1 -1 0  -0.8999999999999999 -1 0  -0.8 -1 0  -0.7 -1 0  -0.6000000000000001 -1 0  -0.5 -1 0  -0.3999999999999999 -1 0  -0.3 -1 0  -0.2 -1 0  -0.1000000000000001 -1 0  0 -1 0  0.1000000000000001 -1 0  0.2000000000000002 -1 0  0.2999999999999998 -1 0  0.3999999999999999 -1 0  0.5 -1 0  0.6000000000000001 -1 0  0.7000000000000002 -1 0  0.7999999999999998 -1 0  0.8999999999999999 -1 0  1 -1 0  1.1 -1 0  1.2 -1 0  1.3 -1 0  1.4 -1 0  1.5 -1 0  1.6 -1 0  1.7 -1 0  1.8 -1 0  1.9 -1 0  2 -1 0  -2 -0.8999999999999999 0  -1.9 -0.8999999999999999 0  -1.8 -0.8999999999999999 0  -1.7 -0.8999999999999999 0  -1.6 -0.8999999999999999 0  -1.5 -0.8999999999999999 0  -1.4 -0.8999999999999999 0  -1.3 -0.8999999999999999 0  -1.2 -0.8999999999999999 0  -1.1 -0.8999999999999999 0  -1 -0.8999999999999999 0  -0.8999999999999999 -0.8999999999999999 0  -0.8 -0.8999999999999999 0  -0.7 -0.8999999999999999 0  -0.6000000000000001 -0.8999999999999999 0  -0.5 -0.8999999999999999 0  -0.3999999999999999 -0.8999999999999999 0  -0.3 -0.8999999999999999 0  -0.2 -0.8999999999999999 0  -0.1000000000000001 -0.8999999999999999 0  0 -0.8999999999999999 0  0.1000000000000001 -0.8999999999999999 0  0.2000000000000002 -0.8999999999999999 0  0.2999999999999998 -0.8999999999999999 0  0.3999999999999999 -0.8999999999999999 0  0.5 -0.8999999999999999 0  0.6000000000000001 -0.8999999999999999 0  0.7000000000000002 -0.8999999999999999 0  0.7999999999999998 -0.8999999999999999 0  0.8999999999999999 -0.8999999999999999 0  1 -0.8999999999999999 0  1.1 -0.8999999999999999 0  1.2 -0.8999999999999999 0  1.3 -0.8999999999999999 0  1.4 -0.8999999999999999 0  1.5 -0.8999999999999999 0  1.6 -0.8999999999999999 0  1.7 -0.8999999999999999 0  1.8 -0.8999999999999999 0  1.9 -0.8999999999999999 0  2 -0.8999999999999999 0  -2 -0.8 0  -1.9 -0.8 0  -1.8 -0.8 0  -1.7 -0.8 0  -1.6 -0.8 0  -1.5 -0.8 0  -1.4 -0.8 0  -1.3 -0.8 0  -1.2 -0.8 0  -1.1 -0.8 0  -1 -0.8 0  -0.8999999999999999 -0.8 0  -0.8 -0.8 0  -0.7 -0.8 0  -0.6000000000000001 -0.8 0  -0.5 -0.8 0  -0.3999999999999999 -0.8 0  -0.3 -0.8 0  -0.2 -0.8 0  -0.1000000000000001 -0.8 0  0 -0.8 0  0.1000000000000001 -0.8 0  0.2000000000000002 -0.8 0  0.2999999999999998 -0.8 0  0.3999999999999999 -0.8 0  0.5 -0.8 0  0.6000000000000001 -0.8 0  0.7000000000000002 -0.8 0  0.7999999999999998 -0.8 0  0.8999999999999999 -0.8 0  1 -0.8 0  1.1 -0.8 0  1.2 -0.8 0  1.3 -0.8 0  1.4 -0.8 0  1.5 -0.8 0  1.6 -0.8 0  1.7 -0.8 0  1.8 -0.8 0  1.9 -0.8 0  2 -0.8 0  -2 -0.7 0  -1.9 -0.7 0  -1.8 -0.7 0  -1.7 -0.7 0  -1.6 -0.7 0  -1.5 -0.7 0  -1.4 -0.7 0  -1.3 -0.7 0  -1.2 -0.7 0  -1.1 -0.7 0  -1 -0.7 0  -0.8999999999999999 -0.7 0  -0.8 -0.7 0  -0.7 -0.7 0  -0.6000000000000001 -0.7 0  -0.5 -0.7 0  -0.3999999999999999 -0.7 0  -0.3 -0.7 0  -0.2 -0.7 0  -0.1000000000000001 -0.7 0  0 -0.7 0  0.1000000000000001 -0.7 0  0.2000000000000002 -0.7 0  0.2999999999999998 -0.7 0  0.3999999999999999 -0.7 0  0.5 -0.7 0  0.600000000000000
[...]
<PointData  Scalars="f_1726"> 
<DataArray  type="Float64"  Name="f_1726"  format="ascii">0.0000000000000000e+00  0.0000000000000000e+00  0.0000000000000000e+00  0.0000000000000000e+00  0.0000000000000000e+00  0.0000000000000000e+00  0.0000000000000000e+00  0.0000000000000000e+00  0.0000000000000000e+00  0.0000000000000000e+00  0.0000000000000000e+00  0.0000000000000000e+00  0.0000000000000000e+00  0.0000000000000000e+00  0.0000000000000000e+00  0.0000000000000000e+00  0.0000000000000000e+00  0.0000000000000000e+00  0.0000000000000000e+00  0.0000000000000000e+00  0.0000000000000000e+00  0.0000000000000000e+00  0.0000000000000000e+00  0.0000000000000000e+00  0.0000000000000000e+00  0.0000000000000000e+00  0.0000000000000000e+00  0.0000000000000000e+00  0.0000000000000000e+00  0.0000000000000000e+00  0.0000000000000000e+00  0.0000000000000000e+00  0.0000000000000000e+00  0.0000000000000000e+00  0.0000000000000000e+00  0.0000000000000000e+00  0.0000000000000000e+00  0.0000000000000000e+00  0.0000000000000000e+00  0.0000000000000000e+00  0.0000000000000000e+00  0.0000000000000000e+00  -3.9211939537666165e-11  -4.5695995387977178e-11  3.0028138362545866e-10  -7.2359299509803766e-11  -1.5208203240489462e-09  8.1937356991919264e-10  7.4828703308499110e-09  1.0295130068628860e-09  -3.1060036032850862e-08  -6.1976155808587093e-08  -5.4629120089269468e-08  -1.8829097158096864e-08  5.0958342587735580e-09  5.1626126540432037e-09  -4.9002691804208742e-10  -9.8951403466463649e-10  1.6578162808000980e-10  1.5229976686797100e-10  -5.9223440658386226e-11  -1.0819936608810874e-11  1.2894125245467792e-11  -2.5294343487113784e-12  -1.1027567281356074e-12  8.2374352843703510e-13  -1.8084156098565594e-13  -4.1085667602725851e-14  4.5382039314291471e-14  -1.6279158341207918e-14  1.9106792899320351e-15  1.2231792718037390e-15  -9.1166130530041329e-16  3.4164833602320667e-16  -7.5554186231827000e-17  6.2554961538071997e-19  8.8586600545794202e-18  -5.3288222940264365e-18  2.1681341831905960e-18  -7.1871554244165619e-19  2.2782812946679944e-19  0.0000000000000000e+00  0.0000000000000000e+00  -4.5695995387977198e-11  3.2862730102319326e-10  -2.9234635098323553e-10  -1.4396324712832249e-09  3.0232051823555105e-09  5.6503075139976063e-09  -1.6278553043080089e-08  -3.1798389952492413e-08  4.7413669382857682e-08  2.0321440473734786e-07  2.6529458239178282e-07  1.5537556540398401e-07  1.2567063421269460e-08  -3.0120067213393519e-08  -6.8463573662622504e-09  5.5920257228947419e-09  9.4607887220290257e-10  -1.1201822301237100e-09  5.1140748189039330e-11  1.7560549573457052e-10  -5.9179882866079717e-11  -8.5586702933690574e-12  1.2344420936869413e-11  -3.5706970369072859e-12  -3.3264392778696962e-13  6.7023683817629525e-13  -2.6728971128109969e-13  3.7176820504818413e-14  1.7692996112421936e-14  -1.4251263786111263e-14  5.3688212839963560e-15  -1.1462722366300657e-15  -2.1404720144588680e-17  1.5114852920960303e-16  -8.5747776587514662e-17  3.3522518254149414e-17  -1.0600440677720006e-17  2.8795579576360090e-18  -7.1871554244165705e-19  0.0000000000000000e+00  0.0000000000000000e+00  3.0028138362545907e-10  -2.9234635098323584e-10  -1.3161849907641205e-09  3.8979571774821088e-09  2.1505063325636274e-09  -2.3124806636198097e-08  1.4348958375769739e-09  1.1551877783569663e-07  4.3870371211536570e-08  -4.6990072909458604e-07  -1.0000185468250401e-06  -8.8645072255933426e-07  -2.8767371149586372e-07  9.4521376695032637e-08  7.6996422545234055e-08  -1.3681909085110655e-08  -1.3778619940654107e-08  4.0662763119918534e-09  1.6304117920028769e-09  -1.0730944142315831e-09  4.3712687714726969e-11  1.5605679049986441e-10  -6.4006200445333644e-11  1.9027529837038350e-12  8.6592972784215742e-12  -4.1986183435245624e-12  7.7344063203622966e-13  1.9644946051236875e-13  -2.0556056019618883e-13  8.3300616595108878e-14  -1.9050989784362123e-14  2.1901596917032609e-16  2.1960089505024647e-15  -1.3022225738829943e-15  5.1701222283878212e-16  -1.6507482934619169e-16  4.4732841068315450e-17  -1.0600440677719959e-17  2.1681341831905890e-18  0.0000000000000000e+00  0.0000000000000000e+00  -7.2359299509804309e-11  -1.4396324712832265e-09  3.8979571774821138e-09  7.3153983904541863e-10  -2.3685593423482116e-08  2.6971094284841127e-08  1.0338001158126711e-07  -1.8854243688552365e-07  -5.2091187431614916e-07  5.6635546964430368e-07  3.0093597448709091e-06  4.0561453124914011e-06  2.3236700786840985e-06  1.0720898659687231e-07  -4.6145717031473305e-07  -6.5257900494498426e-08  8.7134270969152537e-08  2.6223527577189519e-09  -1.5505033409168747e-08  3.2289515033889434e-09  1.5898760324323726e-09  -1.0383759146082355e-09  1.3932357971015303e-10  9.9937899212138560e-11  -6.3778959235206440e-11  1.4991042160096877e-11  1.6869917886882767e-12  -2.8987007048011547e-12  1.2898535110280055e-12  -3.1882387882460882e-13  1.3463322139044068e-14  3.1562098558707531e-14  -1.9863219138890023e-14  8.0454930093898066e-15  -2.5913659582739121e-15  7.0481547096493999e-16  -1.6507482934619246e-16  3.3522518254149451e-17  -5.3288222940264566e-18  0.0000000000000000e+00  0.0000000000000000e+00  -1.5208203240489499e-09  3.0232051823555184e-09  2.1505063325636245e-09  -2.3685593423482139e-08  3.5227175493046134e-08  7.7929968103216907e-08  -2.9767819559185100e-07  -1.6548066115684807e-07  1.6059137515761789e-06  1.1056926520990318e-06  -6.5404784451870977e-06  -1.5116924585935226e-05  -1.3473355645230930e-05  -4.0246653530779708e-06  1.6374478494961724e-06  1.0258930082316655e-06  -2.9636962532584925e-07  -1.5797955003291819e-07  7.7545336139528440e-08  8.3482875252607860e-09  -1.4950829655007244e-08  3.6780982329019271e-09  9.1469391320968155e-10  -9.2359930477320465e-10  2.7315363064216365e-10  3.5848643217233468e-12  -3.9579925473944644e-11  1.9786947681766635e-11  -5.3048274873885858e-12  3.7572230427046249e-13  4.4729313719115174e-13  -3.0244710421272022e-13  1.2526009229116639e-13  -4.0707896864636496e-14  1.1096337231644863e-14  -2.5913659582739073e-15  5.1701222283878301e-16  -8.5747776587514465e-17  8.8586600545794094e-18  0.0000000000000000e+00  0.0000000000000000e+00  8.1937356991919471e-10  5.6503075139976162e-09  -2.3124806636198133e-08  2.6971094284841190e-08  7.7929968103216960e-08  -3.2155594073517327e-07  8.7078979184457119e-08  1.6949984139565547e-06  -1.8208891523650545e-06  -8.2801083580938315e-06  6.0229408980687108e-06  4.4290935967070434e-05  6.2022968947583095e-05  3.4551893621685576e-05  1.6878291398181162e-07  -6.9356866223695955e-06  -3.2693773033010289e-07  1.2697733086160327e-06  -1.4226365578950104e-07  -1.7902185677649557e-07  7.4215960579500577e-08  3.0728702862626080e-09  -1.2458245088753274e-08  4.7179390692519431e-09  -3.1244861144458652e-10  -5.1428336794484415e-10  2.9958665158429186e-10  -8.7667989974731722e-11  8.6047887305399717e-12  6.2086520668423805e-12  -4.5905990358489662e-12  1.9501345774573740e-12  -6.4010945269064503e-13  1.7487997933903802e-13  -4.0707896864636483e-14  8.0454930093897940e-15  -1.3022225738829972e-15  1.5114852920960298e-16  6.2554961538063475e-19  0.0000000000000000e+00  0.0000000000000000e+00  7.4828703308499259e-09  -1.6278553043080115e-08  1.4348958375769985e-09  1.0338001158126726e-07  -2.9767819559185137e-07  8.7078979184457172e-08  1.6125778240681305e-06  -3.2185451593588241e-06  -5.1114111839369018e-06  2.1097211428834037e-05  2.3455542248120515e-05  -8.9304205617832328e-05  -2.2923608592591177e-04  -2.0551303175035890e-04  -5.5058666434869123e-05  2.8022575157984509e-05  1.2785350330033972e-05  -5.6434094678373520e-06  -1.3921703315341053e-06  1.2457904607130528e-06  -1.3243989410483758e-07  -1.4891044732922930e-07  7.7115258100492646e-08  -1.0679776817872210e-08  -6.1456332888736232e-09  4.4545440450307036e-09  -1.4376483598270800e-09  1.7974908190639267e-10  8.3612378313402241e-11  -6.9391021243251827e-11  3.0358952805274797e-11  -1.0077337814037490e-11  2.7600618533558472e-12  -6.4010945269064594e-13  1.2526009229116661e-13  -1.9863219138890049e-14  2.1960089505024773e-15  -2.1404720144590104e-17  -7.5554186231826691e-17  0.0000000000000000e+00  0.0000000000000000e+00  1.0295130068628779e-09  -3.1798389952492453e-08  1.1551877783569678e-07  -1.8854243688552394e-07  -1.6548066115684825e-07  1.6949984139565574e-06  -3.2185451593588267e-06  -3.4723759530234974e-06  2.4728341968059174e-05  -9.9756974808769707e-06  -1.2737972026055554e-04  4.8609050144536826e-05  6.5001293832226228e-04  9.5393180009490427e-04  5.1265351224947706e-04  -2.2864738454238811e-05  -1.0175541393484665e-04  6.0014329983404542e-06  1.6760148957202010e-05  -4.6033491850868798e-06  -1.3642021342971295e-06  1.1768669842218926e-06  -2.5376078487331395e-07  -6.1983273375383989e-08  6.4525317423808808e-08  -2.3354670299682428e-08  3.5593073126948349e-09  1.0742998516068311e-09  -1.0432690365662849e-09  4.7253723625413598e-10  -1.5886744157830477e-10  4.3633164446175645e-11  -1.0077337814037446e-11  1.9501345774573671e-12  -3.0244710421271901e-13  3.1562098558707323e-14  2.1901596917034985e-16  -1.1462722366300631e-15  3.4164833602320559e-16  0.0000000000000000e+00  0.0000000000000000e+00  -3.1060036032850895e-08  4.7413669382857794e-08  4.3870371211536629e-08  -5.2091187431614969e-07  1.6059137515761816e-06  -1.8208891523650571e-06  -5.1114111839369111e-06  2.4728341968059207e-05  -2.2090642800442991e-05  -1.0868828408943134e-04  2.5069785719140485e-04  4.5506352702567751e-04  -1.1826836924181512e-03  -3.4916774166529369e-03  -3.1503382527582943e-03  -7.2582650139052052e-04  4.7328951885517871e-04  1.3958534130584254e-04  -9.6992387134427213e-05  -2.8518227071125426e-06  1.6188450205055600e-05  -5.1475156655978077e-06  -3.6302868819859380e-07  8.9782527842795621e-07  -3.7475035817890338e-07  6.8031751272719880e-08  1.2722423070303652e-08  -1.5571776933252041e-08  7.3526431559538369e-09  -2.5085424215850796e-09  6.9112755915501480e-10  -1.5886744157830539e-10  3.0358952805274842e-11  -4.5905990358489848e-12  4.4729313719115593e-13  1.3463322139043135e-14  -1.9050989784362016e-14  5.3688212839963221e-15  -9.1166130530040934e-16  0.0000000000000000e+00  0.0000000000000000e+00  -6.1976155808587093e-08  2.0321440473734792e-07  -4.6990072909458673e-07  5.6635546964430474e-07  1.1056926520990324e-06  -8.2801083580938468e-06  2.1097211428834074e-05  -9.9756974808769893e-06  -1.0868828408943152e-04  3.0154939760719627e-04  1.3586846957749753e-04  -1.8685132610161122e-03  1.1724279578783991e-05  9.4930455190289642e-03  1.4788516138864668e-02  7.5749825457072754e-03  -7.9941232488891449e-04  -1.4308804849982673e-03  2.6461758781389156e-04  1.8202405855562490e-04  -9.3025263257604760e-05  4.8471735818205536e-06  1.1673019787343217e-05  -5.9096129692875432e-06  1.2671641112634366e-06  1.2683540079398744e-07  -2.3008884673698861e-07  1.1434091924170538e-07  -3.9685609241174890e-08  1.0972445737556642e-08  -2.5085424215850755e-09  4.7253723625413701e-10  -6.9391021243251750e-11  6.2086520668423797e-12  3.7572230427046310e-13  -3.1882387882460842e-13  8.3300616595109080e-14  -1.4251263786111251e-14  1.2231792718037396e-15  0.0000000000000000e+00  0.0000000000000000e+00  -5.4629120089269402e-08  2.6529458239178261e-07  -1.0000185468250398e-06  3.0093597448709087e-06  -6.5404784451871027e-06  6.0229408980687167e-06  2.3455542248120542e-05  -1.2737972026055576e-04  2.5069785719140523e-04  1.3586846957749796e-04  -1.8761212304024464e-03  2.3737888697965047e-03  8.2974515086280832e-03  -1.4823937190043934e-02  -5.3504841921433254e-02  -4.8614503807027185e-02  -8.9178652273615572e-03  7.8496893680741250e-03  1.0528534761984232e-03  -1.4748395014695717e-03  2.4992117840578809e-04  1.3277499891781332e-04  -9.0740135114292735e-05  2.3109269661316841e-05  6.9099958703745910e-07  -3.3503371499142411e-06  1.7763909354113201e-06  -6.2926899740414751e-07  1.7468792457655463e-07  -3.9685609241174897e-08  7.3526431559538328e-09  -1.0432690365662886e-09  8.3612378313402551e-11  8.6047887305398828e-12  -5.3048274873885640e-12  1.2898535110279992e-12  -2.0556056019618835e-13  1.7692996112421756e-14  1.9106792899320545e-15  0.0000000000000000e+00  0.0000000000000000e+00  -1.8829097158096834e-08  1.5537556540398385e-07  -8.8645072255933341e-07  4.0561453124913986e-06  -1.5116924585935217e-05  4.4290935967070440e-05  -8.9304205617832328e-05  4.8609050144536881e-05  4.5506352702567811e-04  -1.8685132610161152e-03  2.3737888697965043e-03  6.3115772940702331e-03  -2.5201918834673469e-02  -1.2400757382705997e-02  1.3738242053167779e-01  2.3188606623687572e-01  1.1100505577536764e-01  -2.0355251495434375e-02  -1.8479077188076880e-02  6.4718386523125873e-03  1.0434619166716480e-03  -1.3316626567354644e-03  4.1304767654687028e-04  -1.2704362648291126e-05  -4.7698532304113490e-05  2.7552958107622286e-05  -1.0005869263727347e-05  2.7907494045379751e-06  -6.2926899740414847e-07  1.1434091924170558e-07  -1.5571776933252074e-08  1.0742998516068402e-09  1.7974908190639151e-10  -8.7667989974731593e-11  1.9786947681766596e-11  -2.8987007048011471e-12  1.9644946051236862e-13  3.7176820504818407e-14  -1.6279158341207908e-14  0.0000000000000000e+00  0.0000000000000000e+00  5.0958342587735721e-09  1.2567063421269353e-08  -2.8767371149586314e-07  2.3236700786840960e-06  -1.3473355645230924e-05  6.2022968947583054e-05  -2.2923608592591174e-04  6.5001293832226239e-04  -1.1826836924181522e-03  1.1724279578783167e-05  8.2974515086280971e-03  -2.5201918834673487e-02  7.5358403225539491e-03  1.4241016600813516e-01  -1.6497854492610989e-01  -8.2692834081025102e-01  -7.5729717618731962e-01  -9.2692737665179131e-02  1.2603956199793970e-01  -4.5704695291295403e-03  -1.7884009455407225e-02  7.2079474844206730e-03  -6.3346083344504938e-04  -6.5411583107985417e-04  4.2617852918234176e-04  -1.5966083246199151e-04  4.4779000838668435e-05  -1.0005869263727303e-05  1.7763909354113142e-06  -2.3008884673698768e-07  1.2722423070303528e-08  3.5593073126948531e-09  -1.4376483598270763e-09  2.9958665158429067e-10  -3.9579925473944373e-11  1.6869917886882364e-12  7.7344063203623633e-13  -2.6728971128109969e-13  4.5382039314291434e-14  0.0000000000000000e+00  0.0000000000000000e+00  5.1626126540432028e-09  -3.0120067213393532e-08  9.4521376695032823e-08  1.0720898659687101e-07  -4.0246653530779632e-06  3.4551893621685542e-05  -2.0551303175035874e-04  9.5393180009490405e-04  -3.4916774166529369e-03  9.4930455190289746e-03  -1.4823937190043946e-02  -1.2400757382706051e-02  1.4241016600813527e-01  -2.7981491958461635e-01  -4.1017966701136199e-01  1.9506654109738457e+00  3.7009515418126955e+00  1.5972071984902683e+00  -4.6095200408575981e-01  -1.9161340811785613e-01  1.2112678712167026e-01  -1.8085195969044197e-02  -8.3598014741332102e-03  6.5595774373373196e-03  -2.5592618376516878e-03  7.2260668654507371e-04  -1.5966083246199227e-04  2.7552958107622340e-05  -3.3503371499142602e-06  1.2683540079399133e-07  6.8031751272718993e-08  -2.3354670299682352e-08  4.4545440450306763e-09  -5.1428336794484095e-10  3.5848643217230289e-12  1.4991042160096871e-11  -4.1986183435245680e-12  6.7023683817629282e-13  -4.1085667602725586e-14  0.0000000000000000e+00  0.0000000000000000e+00  -4.9002691804209021e-10  -6.8463573662622363e-09  7.6996422545234002e-08  -4.6145717031473321e-07  1.6374478494961752e-06  1.6878291398178846e-07  -5.5058666434868987e-05  5.1265351224947630e-04  -3.1503382527582921e-03  1.4788516138864663e-02  -5.3504841921433288e-02  1.3738242053167796e-01  -1.6497854492610989e-01  -4.1017966701136260e-01  2.2244042994815549e+00  -1.2504785624649339e+00  -1.2950057792614176e+01  -1.1968197206526149e+01  -4.6134718430265548e-01  1.8755414196443623e+00  -4.3857686547327024e-01  -9.0550773010381419e-02  1.0002397346802866e-01  -4.1274909742515860e-02  1.1751493135759865e-02  -2.5592618376516839e-03  4.2617852918234268e-04  -4.7698532304113409e-05  6.9099958703745253e-07  1.2671641112634375e-06  -3.7475035817890291e-07  6.4525317423808927e-08  -6.1456332888736132e-09  -3.1244861144458667e-10  2.7315363064216349e-10  -6.3778959235206324e-11  8.6592972784215822e-12  -3.3264392778696735e-13  -1.8084156098565594e-13  0.0000000000000000e+00  0.0000000000000000e+00  -9.8951403466463649e-10  5.5920257228947485e-09  -1.3681909085110723e-08  -6.5257900494498042e-08  1.0258930082316642e-06  -6.9356866223695955e-06  2.8022575157984536e-05  -2.2864738454239076e-05  -7.2582650139051868e-04  7.5749825457072598e-03  -4.8614503807027136e-02  2.3188606623687577e-01  -8.2692834081025124e-01  1.9506654109738457e+00  -1.2504785624649308e+00  -1.0111862428058489e+01  2.6383353464207502e+01  6.0944027919906610e+01  2.1888480124891711e+01  -9.7685885944644593e+00  -4.8303921335024524e-01  1.4953179510210268e+00  -6.7147552345347483e-01  1.9324965579479816e-01  -4.1274909742515853e-02  6.5595774373373135e-03  -6.5411583107985666e-04  -1.2704362648290753e-05  2.3109269661316753e-05  -5.9096129692875195e-06  8.9782527842795038e-07  -6.1983273375383301e-08  -1.0679776817872321e-08  4.7179390692519588e-09  -9.2359930477320631e-10  9.9937899212138612e-11  1.9027529837038261e-12  -3.5706970369072799e-12  8.2374352843703470e-13  0.0000000000000000e+00  0.0000000000000000e+00  1.6578162808001037e-10  9.4607887220290030e-10  -1.3778619940654097e-08  8.7134270969152564e-08  -2.9636962532584978e-07  -3.2693773033010019e-07  1.2785350330033966e-05  -1.0175541393484666e-04  4.7328951885517915e-04  -7.9941232488891752e-04  -8.9178652273615346e-03  1.1100505577536755e-01  -7.5729717618731940e-01  3.7009515418126955e+00  -1.2950057792614182e+01  2.6383353464207495e+01  1.0902416450855911e+01  -2.0753663306407211e+02  -1.9393138629616115e+02  1.6931474172559760e+01  2.1239026573791989e+01  -1.1070705126869873e+01  3.2335285228080366e+00  -6.7147552345347616e-01  1.0002397346802890e-01  -8.3598014741332553e-03  -6.3346083344504320e-04  4.1304767654686843e-04  -9.0740135114292545e-05  1.1673019787343188e-05  -3.6302868819859153e-07  -2.5376078487331448e-07  7.7115258100492540e-08  -1.2458245088753252e-08  9.1469391320967679e-10  1.3932357971015365e-10  -6.4006200445333903e-11  1.2344420936869413e-11  -1.1027567281356090e-12  0.0000000000000000e+00  0.0000000000000000e+00  1.5229976686797087e-10  -1.1201822301237100e-09  4.0662763119918543e-09  2.6223527577189213e-09  -1.5797955003291813e-07  1.2697733086160340e-06  -5.6434094678373621e-06  6.0014329983405101e-06  1.3958534130584233e-04  -1.4308804849982675e-03  7.8496893680741336e-03  -2.0355251495434459e-02  -9.2692737665178673e-02  1.5972071984902669e+00  -1.1968197206526145e+01  6.0944027919906645e+01  -2.0753663306407211e+02  2.9482643617255735e+02  1.0761815914681692e+03  2.4567509089209648e+02  -1.8682682035896238e+02  5.5791363773681596e+01  -1.1070705126869825e+01  1.4953179510210215e+00  -9.0550773010380697e-02  -1.8085195969044204e-02  7.2079474844206825e-03  -1.3316626567354594e-03  1.3277499891781253e-04  4.8471735818206959e-06  -5.1475156655978213e-06  1.1768669842218970e-06  -1.4891044732922935e-07  3.0728702862626286e-09  3.6780982329019160e-09  -1.0383759146082315e-09  1.5605679049986421e-10  -8.5586702933689669e-12  -2.5294343487113860e-12  0.0000000000000000e+00  0.0000000000000000e+00  -5.9223440658386265e-11  5.1140748189039530e-11  1.6304117920028771e-09  -1.5505033409168754e-08  7.7545336139528493e-08  -1.4226365578950144e-07  -1.3921703315341043e-06  1.6760148957202017e-05  -9.6992387134427294e-05  2.6461758781389199e-04  1.0528534761984213e-03  -1.8479077188076884e-02  1.2603956199793981e-01  -4.6095200408576081e-01  -4.6134718430264865e-01  2.1888480124891679e+01  -1.9393138629616107e+02  1.0761815914681690e+03  -3.5004114251308583e+03  -3.3194686608896313e+03  1.0311867731761567e+03  -1.8682682035896320e+02  2.1239026573792056e+01  -4.8303921335026445e-01  -4.3857686547326641e-01  1.2112678712166935e-01  -1.7884009455407145e-02  1.0434619166716293e-03  2.4992117840579031e-04  -9.3025263257605004e-05  1.6188450205055603e-05  -1.3642021342971310e-06  -1.3243989410483772e-07  7.4215960579500669e-08  -1.495082965500725