<?xml version="1.0"?>
<VTKFile type="UnstructuredGrid"  version="0.1"  >
<UnstructuredGrid>
<Piece  NumberOfPoints="1681" NumberOfCells="3200">
<Points>
<DataArray  type="Float64"  NumberOfComponents="3"  format="ascii">-2 -2 0  -1.9 -2 0  -1.8 -2 0  -1.7 -2 0  -1.6 -2 0  -1.5 -2 0  -1.4 -2 0  -1.3 -2 0  -1.2 -2 0  -1.1 -2 0  -1 -2 0  -0.8999999999999999 -2 0  -0.8 -2 0  -0.7 -2 0  -0.6000000000000001 -2 0  -0.5 -2 0  -0.3999999999999999 -2 0  -0.3 -2 0  -0.2 -2 0  -0.1000000000000001 -2 0  0 -2 0  0.1000000000000001 -2 0  0.2000000000000002 -2 0  0.2999999999999998 -2 0  0.3999999999999999 -2 0  0.5 -2 0  0.6000000000000001 -2 0  0.7000000000000002 -2 0  0.7999999999999998 -2 0  0.8999999999999999 -2 0  1 -2 0  1.1 -2 0  1.2 -2 0  1.3 -2 0  1.4 -2 0  1.5 -2 0  1.6 -2 0  1.7 -2 0  1.8 -2 0  1.9 -2 0  2 -2 0  -2 -1.9 0  -1.9 -1.9 0  -1.8 -1.9 0  -1.7 -1.9 0  -1.6 -1.9 0  -1.5 -1.9 0  -1.4 -1.9 0  -1.3 -1.9 0  -1.2 -1.9 0  -1.1 -1.9 0  -1 -1.9 0  -0.8999999999999999 -1.9 0  -0.8 -1.9 0  -0.7 -1.9 0  -0.6000000000000001 -1.9 0  -0.5 -1.9 0  -0.3999999999999999 -1.9 0  -0.3 -1.9 0  -0.2 -1.9 0  -0.1000000000000001 -1.9 0  0 -1.9 0  0.1000000000000001 -1.9 0  0.2000000000000002 -1.9 0  0.2999999999999998 -1.9 0  0.3999999999999999 -1.9 0  0.5 -1.9 0  0.6000000000000001 -1.9 0  0.7000000000000002 -1.9 0  0.7999999999999998 -1.9 0  0.8999999999999999 -1.9 0  1 -1.9 0  1.1 -1.9 0  1.2 -1.9 0  1.3 -1.9 0  1.4 -1.9 0  1.5 -1.9 0  1.6 -1.9 0  1.7 -1.9 0  1.8 -1.9 0  1.9 -1.9 0  2 -1.9 0  -2 -1.8 0  -1.9 -1.8 0  -1.8 -1.8 0  -1.7 -1.8 0  -1.6 -1.8 0  -1.5 -1.8 0  -1.4 -1.8 0  -1.3 -1.8 0  -1.2 -1.8 0  -1.1 -1.8 0  -1 -1.8 0  -0.8999999999999999 -1.8 0  -0.8 -1.8 0  -0.7 -1.8 0  -0.6000000000000001 -1.8 0  -0.5 -1.8 0  -0.3999999999999999 -1.8 0  -0.3 -1.8 0  -0.2 -1.8 0  -0.1000000000000001 -1.8 0  0 -1.8 0  0.1000000000000001 -1.8 0  0.2000000000000002 -1.8 0  0.2999999999999998 -1.8 0  0.3999999999999999 -1.8 0  0.5 -1.8 0  0.6000000000000001 -1.8 0  0.7000000000000002 -1.8 0  0.7999999999999998 -1.8 0  0.8999999999999999 -1.8 0  1 -1.8 0  1.1 -1.8 0  1.2 -1.8 0  1.3 -1.8 0  1.4 -1.8 0  1.5 -1.8 0  1.6 -1.8 0  1.7 -1.8 0  1.8 -1.8 0  1.9 -1.8 0  2 -1.8 0  -2 -1.7 0  -1.9 -1.7 0  -1.8 -1.7 0  -1.7 -1.7 0  -1.6 -1.7 0  -1.5 -1.7 0  -1.4 -1.7 0  -1.3 -1.7 0  -1.2 -1.7 0  -1.1 -1.7 0  -1 -1.7 0  -0.8999999999999999 -1.7 0  -0.8 -1.7 0  -0.7 -1.7 0  -0.6000000000000001 -1.7 0  -0.5 -1.7 0  -0.3999999999999999 -1.7 0  -0.3 -1.7 0  -0.2 -1.7 0  -0.1000000000000001 -1.7 0  0 -1.7 0  0.1000000000000001 -1.7 0  0.2000000000000002 -1.7 0  0.2999999999999998 -1.7 0  0.3999999999999999 -1.7 0  0.5 -1.7 0  0.6000000000000001 -1.7 0  0.7000000000000002 -1.7 0  0.7999999999999998 -1.7 0  0.8999999999999999 -1.7 0  1 -1.7 0  1.1 -1.7 0  1.2 -1.7 0  1.3 -1.7 0  1.4 -1.7 0  1.5 -1.7 0  1.6 -1.7 0  1.7 -1.7 0  1.8 -1.7 0  1.9 -1.7 0  2 -1.7 0  -2 -1.6 0  -1.9 -1.6 0  -1.8 -1.6 0  -1.7 -1.6 0  -1.6 -1.6 0  -1.5 -1.6 0  -1.4 -1.6 0  -1.3 -1.6 0  -1.2 -1.6 0  -1.1 -1.6 0  -1 -1.6 0  -0.8999999999999999 -1.6 0  -0.8 -1.6 0  -0.7 -1.6 0  -0.6000000000000001 -1.6 0  -0.5 -1.6 0  -0.3999999999999999 -1.6 0  -0.3 -1.6 0  -0.2 -1.6 0  -0.1000000000000001 -1.6 0  0 -1.6 0  0.1000000000000001 -1.6 0  0.2000000000000002 -1.6 0  0.2999999999999998 -1.6 0  0.3999999999999999 -1.6 0  0.5 -1.6 0  0.6000000000000001 -1.6 0  0.7000000000000002 -1.6 0  0.7999999999999998 -1.6 0  0.8999999999999999 -1.6 0  1 -1.6 0  1.1 -1.6 0  1.2 -1.6 0  1.3 -1.6 0  1.4 -1.6 0  1.5 -1.6 0  1.6 -1.6 0  1.7 -1.6 0  1.8 -1.6 0  1.9 -1.6 0  2 -1.6 0  -2 -1.5 0  -1.9 -1.5 0  -1.8 -1.5 0  -1.7 -1.5 0  -1.6 -1.5 0  -1.5 -1.5 0  -1.4 -1.5 0  -1.3 -1.5 0  -1.2 -1.5 0  -1.1 -1.5 0  -1 -1.5 0  -0.8999999999999999 -1.5 0  -0.8 -1.5 0  -0.7 -1.5 0  -0.6000000000000001 -1.5 0  -0.5 -1.5 0  -0.3999999999999999 -1.5 0  -0.3 -1.5 0  -0.2 -1.5 0  -0.1000000000000001 -1.5 0  0 -1.5 0  0.1000000000000001 -1.5 0  0.2000000000000002 -1.5 0  0.2999999999999998 -1.5 0  0.3999999999999999 -1.5 0  0.5 -1.5 0  0.6000000000000001 -1.5 0  0.7000000000000002 -1.5 0  0.7999999999999998 -1.5 0  0.8999999999999999 -1.5 0  1 -1.5 0  1.1 -1.5 0  1.2 -1.5 0  1.3 -1.5 0  1.4 -1.5 0  1.5 -1.5 0  1.6 -1.5 0  1.7 -1.5 0  1.8 -1.5 0  1.9 -1.5 0  2 -1.5 0  -2 -1.4 0  -1.9 -1.4 0  -1.8 -1.4 0  -1.7 -1.4 0  -1.6 -1.4 0  -1.5 -1.4 0  -1.4 -1.4 0  -1.3 -1.4 0  -1.2 -1.4 0  -1.1 -1.4 0  -1 -1.4 0  -0.8999999999999999 -1.4 0  -0.8 -1.4 0  -0.7 -1.4 0  -0.6000000000000001 -1.4 0  -0.5 -1.4 0  -0.3999999999999999 -1.4 0  -0.3 -1.4 0  -0.2 -1.4 0  -0.1000000000000001 -1.4 0  0 -1.4 0  0.1000000000000001 -1.4 0  0.2000000000000002 -1.4 0  0.2999999999999998 -1.4 0  0.3999999999999999 -1.4 0  0.5 -1.4 0  0.6000000000000001 -1.4 0  0.7000000000000002 -1.4 0  0.7999999999999998 -1.4 0  0.8999999999999999 -1.4 0  1 -1.4 0  1.1 -1.4 0  1.2 -1.4 0  1.3 -1.4 0  1.4 -1.4 0  1.5 -1.4 0  1.6 -1.4 0  1.7 -1.4 0  1.8 -1.4 0  1.9 -1.4 0  2 -1.4 0  -2 -1.3 0  -1.9 -1.3 0  -1.8 -1.3 0  -1.7 -1.3 0  -1.6 -1.3 0  -1.5 -1.3 0  -1.4 -1.3 0  -1.3 -1.3 0  -1.2 -1.3 0  -1.1 -1.3 0  -1 -1.3 0  -0.8999999999999999 -1.3 0  -0.8 -1.3 0  -0.7 -1.3 0  -0.6000000000000001 -1.3 0  -0.5 -1.3 0  -0.3999999999999999 -1.3 0  -0.3 -1.3 0  -0.2 -1.3 0  -0.1000000000000001 -1.3 0  0 -1.3 0  0.1000000000000001 -1.3 0  0.2000000000000002 -1.3 0  0.2999999999999998 -1.3 0  0.3999999999999999 -1.3 0  0.5 -1.3 0  0.6000000000000001 -1.3 0  0.7000000000000002 -1.3 0  0.7999999999999998 -1.3 0  0.8999999999999999 -1.3 0  1 -1.3 0  1.1 -1.3 0  1.2 -1.3 0  1.3 -1.3 0  1.4 -1.3 0  1.5 -1.3 0  1.6 -1.3 0  1.7 -1.3 0  1.8 -1.3 0  1.9 -1.3 0  2 -1.3 0  -2 -1.2 0  -1.9 -1.2 0  -1.8 -1.2 0  -1.7 -1.2 0  -1.6 -1.2 0  -1.5 -1.2 0  -1.4 -1.2 0  -1.3 -1.2 0  -1.2 -1.2 0  -1.1 -1.2 0  -1 -1.2 0  -0.8999999999999999 -1.2 0  -0.8 -1.2 0  -0.7 -1.2 0  -0.6000000000000001 -1.2 0  -0.5 -1.2 0  -0.3999999999999999 -1.2 0  -0.3 -1.2 0  -0.2 -1.2 0  -0.1000000000000001 -1.2 0  0 -1.2 0  0.1000000000000001 -1.2 0  0.2000000000000002 -1.2 0  0.2999999999999998 -1.2 0  0.3999999999999999 -1.2 0  0.5 -1.2 0  0.6000000000000001 -1.2 0  0.7000000000000002 -1.2 0  0.7999999999999998 -1.2 0  0.8999999999999999 -1.2 0  1 -1.2 0  1.1 -1.2 0  1.2 -1.2 0  1.3 -1.2 0  1.4 -1.2 0  1.5 -1.2 0  1.6 -1.2 0  1.7 -1.2 0  1.8 -1.2 0  1.9 -1.2 0  2 -1.2 0  -2 -1.1 0  -1.9 -1.1 0  -1.8 -1.1 0  -1.7 -1.1 0  -1.6 -1.1 0  -1.5 -1.1 0  -1.4 -1.1 0  -1.3 -1.1 0  -1.2 -1.1 0  -1.1 -1.1 0  -1 -1.1 0  -0.8999999999999999 -1.1 0  -0.8 -1.1 0  -0.7 -1.1 0  -0.6000000000000001 -1.1 0  -0.5 -1.1 0  -0.3999999999999999 -1.1 0  -0.3 -1.1 0  -0.2 -1.1 0  -0.1000000000000001 -1.1 0  0 -1.1 0  0.1000000000000001 -1.1 0  0.2000000000000002 -1.1 0  0.2999999999999998 -1.1 0  0.3999999999999999 -1.1 0  0.5 -1.1 0  0.6000000000000001 -1.1 0  0.7000000000000002 -1.1 0  0.7999999999999998 -1.1 0  0.8999999999999999 -1.1 0  1 -1.1 0  1.1 -1.1 0  1.2 -1.1 0  1.3 -1.1 0  1.4 -1.1 0  1.5 -1.1 0  1.6 -1.1 0  1.7 -1.1 0  1.8 -1.1 0  1.9 -1.1 0  2 -1.1 0  -2 -1 0  -1.9 -1 0  -1.8 -1 0  -1.7 -1 0  -1.6 -1 0  -1.5 -1 0  -1.4 -1 0  -1.3 -1 0  -1.2 -1 0  -1.1 -1 0  -1 -1 0  -0.8999999999999999 -1 0  -0.8 -1 0  -0.7 -1 0  -0.6000000000000001 -1 0  -0.5 -1 0  -0.3999999999999999 -1 0  -0.3 -1 0  -0.2 -1 0  -0.1000000000000001 -1 0  0 -1 0  0.1000000000000001 -1 0  0.2000000000000002 -1 0  0.2999999999999998 -1 0  0.3999999999999999 -1 0  0.5 -1 0  0.6000000000000001 -1 0  0.7000000000000002 -1 0  0.7999999999999998 -1 0  0.8999999999999999 -1 0  1 -1 0  1.1 -1 0  1.2 -1 0  1.3 -1 0  1.4 -1 0  1.5 -1 0  1.6 -1 0  1.7 -1 0  1.8 -1 0  1.9 -1 0  2 -1 0  -2 -0.8999999999999999 0  -1.9 -0.8999999999999999 0  -1.8 -0.8999999999999999 0  -1.7 -0.8999999999999999 0  -1.6 -0.8999999999999999 0  -1.5 -0.8999999999999999 0  -1.4 -0.8999999999999999 0  -1.3 -0.8999999999999999 0  -1.2 -0.8999999999999999 0  -1.1 -0.8999999999999999 0  -1 -0.8999999999999999 0  -0.8999999999999999 -0.8999999999999999 0  -0.8 -0.8999999999999999 0  -0.7 -0.8999999999999999 0  -0.6000000000000001 -0.8999999999999999 0  -0.5 -0.8999999999999999 0  -0.3999999999999999 -0.8999999999999999 0  -0.3 -0.8999999999999999 0  -0.2 -0.8999999999999999 0  -0.1000000000000001 -0.8999999999999999 0  0 -0.8999999999999999 0  0.1000000000000001 -0.8999999999999999 0  0.2000000000000002 -0.8999999999999999 0  0.2999999999999998 -0.8999999999999999 0  0.3999999999999999 -0.8999999999999999 0  0.5 -0.8999999999999999 0  0.6000000000000001 -0.8999999999999999 0  0.7000000000000002 -0.8999999999999999 0  0.7999999999999998 -0.8999999999999999 0  0.8999999999999999 -0.8999999999999999 0  1 -0.8999999999999999 0  1.1 -0.8999999999999999 0  1.2 -0.8999999999999999 0  1.3 -0.8999999999999999 0  1.4 -0.8999999999999999 0  1.5 -0.8999999999999999 0  1.6 -0.8999999999999999 0  1.7 -0.8999999999999999 0  1.8 -0.8999999999999999 0  1.9 -0.8999999999999999 0  2 -0.8999999999999999 0  -2 -0.8 0  -1.9 -0.8 0  -1.8 -0.8 0  -1.7 -0.8 0  -1.6 -0.8 0  -1.5 -0.8 0  -1.4 -0.8 0  -1.3 -0.8 0  -1.2 -0.8 0  -1.1 -0.8 0  -1 -0.8 0  -0.8999999999999999 -0.8 0  -0.8 -0.8 0  -0.7 -0.8 0  -0.6000000000000001 -0.8 0  -0.5 -0.8 0  -0.3999999999999999 -0.8 0  -0.3 -0.8 0  -0.2 -0.8 0  -0.1000000000000001 -0.8 0  0 -0.8 0  0.1000000000000001 -0.8 0  0.2000000000000002 -0.8 0  0.2999999999999998 -0.8 0  0.3999999999999999 -0.8 0  0.5 -0.8 0  0.6000000000000001 -0.8 0  0.7000000000000002 -0.8 0  0.7999999999999998 -0.8 0  0.8999999999999999 -0.8 0  1 -0.8 0  1.1 -0.8 0  1.2 -0.8 0  1.3 -0.8 0  1.4 -0.8 0  1.5 -0.8 0  1.6 -0.8 0  1.7 -0.8 0  1.8 -0.8 0  1.9 -0.8 0  2 -0.8 0  -2 -0.7 0  -1.9 -0.7 0  -1.8 -0.7 0  -1.7 -0.7 0  -1.6 -0.7 0  -1.5 -0.7 0  -1.4 -0.7 0  -1.3 -0.7 0  -1.2 -0.7 0  -1.1 -0.7 0  -1 -0.7 0  -0.8999999999999999 -0.7 0  -0.8 -0.7 0  -0.7 -0.7 0  -0.6000000000000001 -0.7 0  -0.5 -0.7 0  -0.3999999999999999 -0.7 0  -0.3 -0.7 0  -0.2 -0.7 0  -0.1000000000000001 -0.7 0  0 -0.7 0  0.1000000000000001 -0.7 0  0.2000000000000002 -0.7 0  0.2999999999999998 -0.7 0  0.3999999999999999 -0.7 0  0.5 -0.7 0  0.600000000000000
[...]
<PointData  Scalars="f_1726"> 
<DataArray  type="Float64"  Name="f_1726"  format="ascii">0.0000000000000000e+00  0.0000000000000000e+00  0.0000000000000000e+00  0.0000000000000000e+00  0.0000000000000000e+00  0.0000000000000000e+00  0.0000000000000000e+00  0.0000000000000000e+00  0.0000000000000000e+00  0.0000000000000000e+00  0.0000000000000000e+00  0.0000000000000000e+00  0.0000000000000000e+00  0.0000000000000000e+00  0.0000000000000000e+00  0.0000000000000000e+00  0.0000000000000000e+00  0.0000000000000000e+00  0.0000000000000000e+00  0.0000000000000000e+00  0.0000000000000000e+00  0.0000000000000000e+00  0.0000000000000000e+00  0.0000000000000000e+00  0.0000000000000000e+00  0.0000000000000000e+00  0.0000000000000000e+00  0.0000000000000000e+00  0.0000000000000000e+00  0.0000000000000000e+00  0.0000000000000000e+00  0.0000000000000000e+00  0.0000000000000000e+00  0.0000000000000000e+00  0.0000000000000000e+00  0.0000000000000000e+00  0.0000000000000000e+00  0.0000000000000000e+00  0.0000000000000000e+00  0.0000000000000000e+00  0.0000000000000000e+00  0.0000000000000000e+00  -1.5176515516553074e-11  -1.7686092328684848e-11  1.1622034338664176e-10  -2.8005807535293776e-11  -5.8861544514132449e-10  3.1712880934611879e-10  2.8961560948907176e-09  3.9846078279651003e-10  -1.2021418077125652e-08  -2.3987135076086420e-08  -2.1143552154415671e-08  -7.2875784404402357e-09  1.9722821316648014e-09  1.9981279164928330e-09  -1.8965909906217914e-10  -3.8297965563548540e-10  6.4163810323610469e-11  5.8945816052248840e-11  -2.2921729368481856e-11  -4.1877279667332749e-12  4.9905180454602774e-12  -9.7898752507372877e-13  -4.2680889527173419e-13  3.1882014989276640e-13  -6.9992578502783013e-14  -1.5901719711715711e-14  1.7564579358911194e-14  -6.3006549044697066e-15  7.3950572791625571e-16  4.7341701065879969e-16  -3.5284768131508273e-16  1.3223093103772873e-16  -2.9242350498536633e-17  2.4211154959778632e-19  3.4286391685636848e-18  -2.0624573837405093e-18  8.3915058681434381e-19  -2.7817031522697374e-19  8.8178171820315176e-20  0.0000000000000000e+00  0.0000000000000000e+00  -1.7686092328684861e-11  1.2719129407895365e-10  -1.1314918323901967e-10  -5.5719265091634069e-10  1.1700956622068906e-09  2.1868844201677262e-09  -6.3004206310178562e-09  -1.2307189193022228e-08  1.8350897649284801e-08  7.8651721976693960e-08  1.0267911747285104e-07  6.0136267347389565e-08  4.8639326505947608e-09  -1.1657614308636532e-08  -2.6498013111832557e-09  2.1643271450766653e-09  3.6616859184122196e-10  -4.3355322887074206e-10  1.9793419238381361e-11  6.7966021630929036e-11  -2.2904870842262516e-11  -3.3125316941694991e-12  4.7777615211127484e-12  -1.3819958824908139e-12  -1.2874588176636210e-13  2.5940720847478420e-13  -1.0345130841528453e-13  1.4388846863989249e-14  6.8478640230624583e-15  -5.5157824002214879e-15  2.0779385177798447e-15  -4.4365105604377241e-16  -8.2844427292300496e-18  5.8500243188690825e-17  -3.3187658586494759e-17  1.2974492576408563e-17  -4.1027746733410609e-18  1.1144987098355029e-18  -2.7817031522697413e-19  0.0000000000000000e+00  0.0000000000000000e+00  1.1622034338664177e-10  -1.1314918323901965e-10  -5.0941376964529528e-10  1.5086580333546437e-09  8.3232793657775599e-10  -8.9501817780380495e-09  5.5535939309265171e-10  4.4710171058808088e-08  1.6979506172329897e-08  -1.8186949664892893e-07  -3.8704530231544774e-07  -3.4309022466635484e-07  -1.1134069361775909e-07  3.6583376312721386e-08  2.9800550935623758e-08  -5.2954204248629858e-09  -5.3328512129617111e-09  1.5738039554064212e-09  6.3103152130320371e-10  -4.1532844894520449e-10  1.6918476647540849e-11  6.0399927430512014e-11  -2.4772839743902824e-11  7.3643794522354195e-13  3.3514781736866980e-12  -1.6250253670154800e-12  2.9935101123868200e-13  7.6033430654980790e-14  -7.9559773584065774e-14  3.2240514373937795e-14  -7.3734593462365022e-15  8.4767529830894312e-17  8.4993918446130632e-16  -5.0400978200929807e-16  2.0010344080591128e-16  -6.3890252267637069e-17  1.7313314887692932e-17  -4.1027746733410432e-18  8.3915058681434140e-19  0.0000000000000000e+00  0.0000000000000000e+00  -2.8005807535293831e-11  -5.5719265091634089e-10  1.5086580333546440e-09  2.8313380692594771e-10  -9.1672276441452033e-09  1.0438841733883534e-08  4.0012005740176055e-08  -7.2973111064125112e-08  -2.0161275459791513e-07  2.1920115848095179e-07  1.1647369500570693e-06  1.5698828723656534e-06  8.9934890801880040e-07  4.1493965047009170e-08  -1.7860151749899994e-07  -2.5257295382726100e-08  3.3724284770882511e-08  1.0149504917798863e-09  -6.0010390430416420e-09  1.2497273323169127e-09  6.1534263696464486e-10  -4.0189106598333772e-10  5.3923536918181736e-11  3.8679777026275828e-11  -2.4684888732242625e-11  5.8021048342550868e-12  6.5293013707551771e-13  -1.1219076827862597e-12  4.9922248312642518e-13  -1.2339699594256004e-13  5.2108189433293046e-15  1.2215735415257422e-14  -7.6878230718602198e-15  3.1139125209053813e-15  -1.0029574190543113e-15  2.7279045763933927e-16  -6.3890252267637389e-17  1.2974492576408583e-17  -2.0624573837405174e-18  0.0000000000000000e+00  0.0000000000000000e+00  -5.8861544514132552e-10  1.1700956622068918e-09  8.3232793657775589e-10  -9.1672276441452033e-09  1.3634259916192161e-08  3.0161868657041922e-08  -1.1521281037372862e-07  -6.4047324650287868e-08  6.2154984569509490e-07  4.2794520977470703e-07  -2.5314145074031367e-06  -5.8508261321945113e-06  -5.2147022927408917e-06  -1.5576989279310893e-06  6.3375474379567418e-07  3.9705970531744394e-07  -1.1470634379286986e-07  -6.1144108673063407e-08  3.0013001423390460e-08  3.2311055422816603e-09  -5.7865410617243803e-09  1.4235642399025478e-09  3.5402141619107415e-10  -3.5746814223519075e-10  1.0572086876400221e-10  1.3874791618280389e-12  -1.5318940102983903e-11  7.6583031101814192e-12  -2.0531704787939633e-12  1.4541885578494165e-13  1.7311949669075810e-13  -1.1705855981981553e-13  4.8480431130821301e-14  -1.5755508033948362e-14  4.2947055452637934e-15  -1.0029574190543097e-15  2.0010344080591175e-16  -3.3187658586494691e-17  3.4286391685636787e-18  0.0000000000000000e+00  0.0000000000000000e+00  3.1712880934612028e-10  2.1868844201677279e-09  -8.9501817780380577e-09  1.0438841733883542e-08  3.0161868657041929e-08  -1.2445440805904162e-07  3.3702884742262148e-08  6.5602900629881843e-07  -7.0475352151979158e-07  -3.2047176053263641e-06  2.3311077460735576e-06  1.7142280766326749e-05  2.4005253545581379e-05  1.3372900087538275e-05  6.5325422388592346e-08  -2.6843751388842028e-06  -1.2653736580755691e-07  4.9145067925561464e-07  -5.5061458448311920e-08  -6.9288283599458252e-08  2.8724406152588856e-08  1.1893179508507205e-09  -4.8218158073222939e-09  1.8260222864486127e-09  -1.2092952441587979e-10  -1.9904726992712884e-10  1.1595145560075474e-10  -3.3930854373538138e-11  3.3303812875733421e-12  2.4029850484391732e-12  -1.7767368388118733e-12  7.5477642838143508e-13  -2.4774676171578247e-13  6.7685219126280244e-14  -1.5755508033948359e-14  3.1139125209053765e-15  -5.0400978200929935e-16  5.8500243188690775e-17  2.4211154959776889e-19  0.0000000000000000e+00  0.0000000000000000e+00  2.8961560948907205e-09  -6.3004206310178703e-09  5.5535939309266660e-10  4.0012005740176074e-08  -1.1521281037372868e-07  3.3702884742262175e-08  6.2412909581049392e-07  -1.2456996804459318e-06  -1.9783109955575098e-06  8.1654251327746742e-06  9.0781890688122253e-06  -3.4564132206482100e-05  -8.8723104646905586e-05  -7.9541378263555762e-05  -2.1309802966182056e-05  1.0845804918433223e-05  4.9484180062539221e-06  -2.1842146133226833e-06  -5.3882299338742917e-07  4.8216840279537776e-07  -5.1259288155383637e-08  -5.7634020176381553e-08  2.9846544825994002e-08  -4.1334807841899438e-09  -2.3785943788381862e-09  1.7240783704064940e-09  -5.5642472414057298e-10  6.9569747449449828e-11  3.2361178044517064e-11  -2.6856970683535682e-11  1.1750072139965795e-11  -3.9003139223291116e-12  1.0682491618111445e-12  -2.4774676171578293e-13  4.8480431130821376e-14  -7.6878230718602261e-15  8.4993918446130997e-16  -8.2844427292304086e-18  -2.9242350498536559e-17  0.0000000000000000e+00  0.0000000000000000e+00  3.9846078279650704e-10  -1.2307189193022230e-08  4.4710171058808134e-08  -7.2973111064125245e-08  -6.4047324650287855e-08  6.5602900629881864e-07  -1.2456996804459320e-06  -1.3439418746360574e-06  9.5708110846285593e-06  -3.8609752384612460e-06  -4.9300807963644237e-05  1.8813555576735314e-05  2.5157978821557678e-04  3.6920797432034834e-04  1.9841645363642406e-04  -8.8495254767837759e-06  -3.9383224514871652e-05  2.3227833689118316e-06  6.4868166101394498e-06  -1.7816716326534703e-06  -5.2799823479752908e-07  4.5549238975557160e-07  -9.8215098118855869e-08  -2.3989889845786842e-08  2.4973757805381688e-08  -9.0391477791258159e-09  1.3775876249988960e-09  4.1579499916550469e-10  -4.0378489072642132e-10  1.8288992543383956e-10  -6.1487756551093789e-11  1.6887698110867494e-11  -3.9003139223290946e-12  7.5477642838143215e-13  -1.1705855981981500e-13  1.2215735415257330e-14  8.4767529830906416e-17  -4.4365105604377197e-16  1.3223093103772836e-16  0.0000000000000000e+00  0.0000000000000000e+00  -1.2021418077125670e-08  1.8350897649284834e-08  1.6979506172329854e-08  -2.0161275459791516e-07  6.2154984569509575e-07  -7.0475352151979275e-07  -1.9783109955575111e-06  9.5708110846285695e-06  -8.5499209471521135e-06  -4.2066509573348131e-05  9.7029628334941812e-05  1.7612693379496136e-04  -4.5774367758363177e-04  -1.3514122769094005e-03  -1.2193010072723009e-03  -2.8092252743829141e-04  1.8318108748045526e-04  5.4024848635109325e-05  -3.7539751557537112e-05  -1.1037641105045902e-06  6.2655473976229507e-06  -1.9922848064070714e-06  -1.4050594243387410e-07  3.4749261143093234e-07  -1.4504267559304834e-07  2.6330881384148991e-08  4.9240627577002550e-09  -6.0268713313911265e-09  2.8457532134268021e-09  -9.7090155279229116e-10  2.6749271393112525e-10  -6.1487756551094035e-11  1.1750072139965811e-11  -1.7767368388118797e-12  1.7311949669075959e-13  5.2108189433289803e-15  -7.3734593462364675e-15  2.0779385177798325e-15  -3.5284768131508130e-16  0.0000000000000000e+00  0.0000000000000000e+00  -2.3987135076086414e-08  7.8651721976694027e-08  -1.8186949664892912e-07  2.1920115848095227e-07  4.2794520977470645e-07  -3.2047176053263679e-06  8.1654251327746844e-06  -3.8609752384612579e-06  -4.2066509573348158e-05  1.1671111313932281e-04  5.2586277574270190e-05  -7.2318586718865421e-04  4.5377431732719937e-06  3.6741705286089106e-03  5.7237195429388115e-03  2.9318070337254055e-03  -3.0940304651715436e-04  -5.5380529856344999e-04  1.0241709476147442e-04  7.0450250143883110e-05  -3.6004323374627412e-05  1.8760409697475553e-06  4.5179036797573617e-06  -2.2872455171227572e-06  4.9044082040715354e-07  4.9090135578454150e-08  -8.9053155591434432e-08  4.4254294878267633e-08  -1.5359843749988574e-08  4.2467548138139348e-09  -9.7090155279228971e-10  1.8288992543383982e-10  -2.6856970683535627e-11  2.4029850484391671e-12  1.4541885578494281e-13  -1.2339699594256002e-13  3.2240514373937890e-14  -5.5157824002214800e-15  4.7341701065879949e-16  0.0000000000000000e+00  0.0000000000000000e+00  -2.1143552154415635e-08  1.0267911747285091e-07  -3.8704530231544753e-07  1.1647369500570693e-06  -2.5314145074031384e-06  2.3311077460735643e-06  9.0781890688122236e-06  -4.9300807963644291e-05  9.7029628334941947e-05  5.2586277574270156e-05  -7.2613044138729191e-04  9.1874679090744556e-04  3.2114300657731672e-03  -5.7374288401368821e-03  -2.0708413641496708e-02  -1.8815666352034473e-02  -3.4515538275676143e-03  3.0381290469007225e-03  4.0749443426111231e-04  -5.7081911383082050e-04  9.6729024034816063e-05  5.1388986493536805e-05  -3.5119891664969874e-05  8.9441683764275665e-06  2.6744318384282507e-07  -1.2967082052270222e-06  6.8753101510924813e-07  -2.4355109223853075e-07  6.7610886611305881e-08  -1.5359843749988584e-08  2.8457532134267992e-09  -4.0378489072642236e-10  3.2361178044517135e-11  3.3303812875733143e-12  -2.0531704787939544e-12  4.9922248312642255e-13  -7.9559773584065534e-14  6.8478640230623778e-15  7.3950572791626557e-16  0.0000000000000000e+00  0.0000000000000000e+00  -7.2875784404402225e-09  6.0136267347389473e-08  -3.4309022466635447e-07  1.5698828723656522e-06  -5.8508261321945079e-06  1.7142280766326752e-05  -3.4564132206482134e-05  1.8813555576735372e-05  1.7612693379496141e-04  -7.2318586718865497e-04  9.1874679090744611e-04  2.4428210352963830e-03  -9.7541033866466315e-03  -4.7995658734214502e-03  5.3172234311384445e-02  8.9748748055063776e-02  4.2963188540379262e-02  -7.8782583520780915e-03  -7.1521073678856902e-03  2.5048482907381229e-03  4.0385954268055545e-04  -5.1540421644654245e-04  1.5986519784792207e-04  -4.9170726858460680e-06  -1.8461150459921128e-05  1.0664045216268682e-05  -3.8726528686929974e-06  1.0801264140504329e-06  -2.4355109223853107e-07  4.4254294878267719e-08  -6.0268713313911356e-09  4.1579499916550748e-10  6.9569747449449440e-11  -3.3930854373538087e-11  7.6583031101814079e-12  -1.1219076827862568e-12  7.6033430654980727e-14  1.4388846863989246e-14  -6.3006549044697043e-15  0.0000000000000000e+00  0.0000000000000000e+00  1.9722821316648068e-09  4.8639326505947145e-09  -1.1134069361775883e-07  8.9934890801879870e-07  -5.2147022927408867e-06  2.4005253545581358e-05  -8.8723104646905545e-05  2.5157978821557683e-04  -4.5774367758363209e-04  4.5377431732720903e-06  3.2114300657731711e-03  -9.7541033866466367e-03  2.9166575011074598e-03  5.5118163488477027e-02  -6.3852986526319419e-02  -3.2005279369894690e-01  -2.9310287837225202e-01  -3.5875623293157299e-02  4.8782115623835609e-02  -1.7689459522943938e-03  -6.9217934689879777e-03  2.7897504721675561e-03  -2.4517349259586243e-04  -2.5316776413139542e-04  1.6494733841830578e-04  -6.1794829070304364e-05  1.7331180478614022e-05  -3.8726528686929804e-06  6.8753101510924580e-07  -8.9053155591433982e-08  4.9240627577001930e-09  1.3775876249989051e-09  -5.5642472414057153e-10  1.1595145560075430e-10  -1.5318940102983803e-11  6.5293013707550065e-13  2.9935101123868503e-13  -1.0345130841528460e-13  1.7564579358911188e-14  0.0000000000000000e+00  0.0000000000000000e+00  1.9981279164928322e-09  -1.1657614308636535e-08  3.6583376312721445e-08  4.1493965047008707e-08  -1.5576989279310863e-06  1.3372900087538267e-05  -7.9541378263555708e-05  3.6920797432034817e-04  -1.3514122769094005e-03  3.6741705286089132e-03  -5.7374288401368899e-03  -4.7995658734214641e-03  5.5118163488477055e-02  -1.0829904153962508e-01  -1.5875516881772214e-01  7.5498188118980003e-01  1.4324093417102706e+00  6.1818007772233041e-01  -1.7840599890943654e-01  -7.4161694008705384e-02  4.6880684452153390e-02  -6.9996603197975318e-03  -3.2355618794529298e-03  2.5388065454950014e-03  -9.9053190043643137e-04  2.7967633634092394e-04  -6.1794829070304635e-05  1.0664045216268694e-05  -1.2967082052270284e-06  4.9090135578455414e-08  2.6330881384148713e-08  -9.0391477791257927e-09  1.7240783704064839e-09  -1.9904726992712757e-10  1.3874791618279030e-12  5.8021048342550868e-12  -1.6250253670154828e-12  2.5940720847478329e-13  -1.5901719711715585e-14  0.0000000000000000e+00  0.0000000000000000e+00  -1.8965909906218033e-10  -2.6498013111832491e-09  2.9800550935623751e-08  -1.7860151749899997e-07  6.3375474379567535e-07  6.5325422388582724e-08  -2.1309802966181998e-05  1.9841645363642390e-04  -1.2193010072722992e-03  5.7237195429388089e-03  -2.0708413641496719e-02  5.3172234311384493e-02  -6.3852986526319475e-02  -1.5875516881772214e-01  8.6092926706013218e-01  -4.8398287690248576e-01  -5.0121660735776352e+00  -4.6321485943212704e+00  -1.7855894871922037e-01  7.2590603251921504e-01  -1.6974596723690746e-01  -3.5046601311517780e-02  3.8713091044799114e-02  -1.5974963634479315e-02  4.5482758573115248e-03  -9.9053190043642964e-04  1.6494733841830600e-04  -1.8461150459921078e-05  2.6744318384281914e-07  4.9044082040715418e-07  -1.4504267559304821e-07  2.4973757805381734e-08  -2.3785943788381796e-09  -1.2092952441588043e-10  1.0572086876400219e-10  -2.4684888732242586e-11  3.3514781736867017e-12  -1.2874588176636089e-13  -6.9992578502783063e-14  0.0000000000000000e+00  0.0000000000000000e+00  -3.8297965563548556e-10  2.1643271450766678e-09  -5.2954204248630123e-09  -2.5257295382725958e-08  3.9705970531744341e-07  -2.6843751388842032e-06  1.0845804918433237e-05  -8.8495254767839030e-06  -2.8092252743829082e-04  2.9318070337254003e-03  -1.8815666352034459e-02  8.9748748055063735e-02  -3.2005279369894685e-01  7.5498188118980014e-01  -4.8398287690248565e-01  -3.9136762641711802e+00  1.0211363629274851e+01  2.3587662234336776e+01  8.4716762844665325e+00  -3.7808162036030919e+00  -1.8695459094727376e-01  5.7874505452737968e-01  -2.5988662690067427e-01  7.4794984239967235e-02  -1.5974963634479308e-02  2.5388065454949988e-03  -2.5316776413139596e-04  -4.9170726858459706e-06  8.9441683764275377e-06  -2.2872455171227475e-06  3.4749261143092996e-07  -2.3989889845786538e-08  -4.1334807841899918e-09  1.8260222864486191e-09  -3.5746814223519152e-10  3.8679777026275847e-11  7.3643794522354437e-13  -1.3819958824908129e-12  3.1882014989276645e-13  0.0000000000000000e+00  0.0000000000000000e+00  6.4163810323610727e-11  3.6616859184122098e-10  -5.3328512129617070e-09  3.3724284770882524e-08  -1.1470634379287006e-07  -1.2653736580755570e-07  4.9484180062539187e-06  -3.9383224514871652e-05  1.8318108748045540e-04  -3.0940304651715561e-04  -3.4515538275676047e-03  4.2963188540379234e-02  -2.9310287837225196e-01  1.4324093417102703e+00  -5.0121660735776361e+00  1.0211363629274853e+01  4.2196508100651453e+00  -8.0324589119713153e+01  -7.5058839934279604e+01  6.5531260000831919e+00  8.2203130004321530e+00  -4.2847849435178418e+00  1.2514988133263303e+00  -2.5988662690067454e-01  3.8713091044799183e-02  -3.2355618794529411e-03  -2.4517349259586075e-04  1.5986519784792140e-04  -3.5119891664969806e-05  4.5179036797573507e-06  -1.4050594243387312e-07  -9.8215098118856094e-08  2.9846544825993949e-08  -4.8218158073222873e-09  3.5402141619107259e-10  5.3923536918182066e-11  -2.4772839743902944e-11  4.7777615211127517e-12  -4.2680889527173479e-13  0.0000000000000000e+00  0.0000000000000000e+00  5.8945816052248840e-11  -4.3355322887074242e-10  1.5738039554064238e-09  1.0149504917798749e-09  -6.1144108673063381e-08  4.9145067925561506e-07  -2.1842146133226871e-06  2.3227833689118520e-06  5.4024848635109244e-05  -5.5380529856344999e-04  3.0381290469007256e-03  -7.8782583520781175e-03  -3.5875623293157140e-02  6.1818007772232986e-01  -4.6321485943212704e+00  2.3587662234336779e+01  -8.0324589119713110e+01  1.1410907075802264e+02  4.1652330423126853e+02  9.5085626289231996e+01  -7.2309102062203692e+01  2.1593384769646367e+01  -4.2847849435178240e+00  5.7874505452737712e-01  -3.5046601311517447e-02  -6.9996603197975482e-03  2.7897504721675604e-03  -5.1540421644654061e-04  5.1388986493536520e-05  1.8760409697476063e-06  -1.9922848064070757e-06  4.5549238975557318e-07  -5.7634020176381527e-08  1.1893179508507242e-09  1.4235642399025460e-09  -4.0189106598333663e-10  6.0399927430511949e-11  -3.3125316941694607e-12  -9.7898752507373301e-13  0.0000000000000000e+00  0.0000000000000000e+00  -2.2921729368481885e-11  1.9793419238381494e-11  6.3103152130320350e-10  -6.0010390430416445e-09  3.0013001423390480e-08  -5.5061458448312092e-08  -5.3882299338742811e-07  6.4868166101394523e-06  -3.7539751557537159e-05  1.0241709476147467e-04  4.0749443426111123e-04  -7.1521073678856928e-03  4.8782115623835651e-02  -1.7840599890943692e-01  -1.7855894871921854e-01  8.4716762844665254e+00  -7.5058839934279561e+01  4.1652330423126841e+02  -1.3547926711655825e+03  -1.2847609231446224e+03  3.9910859417038841e+02  -7.2309102062203991e+01  8.2203130004321725e+00  -1.8695459094727956e-01  -1.6974596723690619e-01  4.6880684452153099e-02  -6.9217934689879525e-03  4.0385954268054889e-04  9.6729024034816890e-05  -3.6004323374627500e-05  6.2655473976229507e-06  -5.2799823479752971e-07  -5.1259288155383670e-08  2.8724406152588876e-08  -5.786541061724382