<?xml version="1.0"?>
<VTKFile type="UnstructuredGrid"  version="0.1"  >
<UnstructuredGrid>
<Piece  NumberOfPoints="1681" NumberOfCells="3200">
<Points>
<DataArray  type="Float64"  NumberOfComponents="3"  format="ascii">-2 -2 0  -1.9 -2 0  -1.8 -2 0  -1.7 -2 0  -1.6 -2 0  -1.5 -2 0  -1.4 -2 0  -1.3 -2 0  -1.2 -2 0  -1.1 -2 0  -1 -2 0  -0.8999999999999999 -2 0  -0.8 -2 0  -0.7 -2 0  -0.6000000000000001 -2 0  -0.5 -2 0  -0.3999999999999999 -2 0  -0.3 -2 0  -0.2 -2 0  -0.1000000000000001 -2 0  0 -2 0  0.1000000000000001 -2 0  0.2000000000000002 -2 0  0.2999999999999998 -2 0  0.3999999999999999 -2 0  0.5 -2 0  0.6000000000000001 -2 0  0.7000000000000002 -2 0  0.7999999999999998 -2 0  0.8999999999999999 -2 0  1 -2 0  1.1 -2 0  1.2 -2 0  1.3 -2 0  1.4 -2 0  1.5 -2 0  1.6 -2 0  1.7 -2 0  1.8 -2 0  1.9 -2 0  2 -2 0  -2 -1.9 0  -1.9 -1.9 0  -1.8 -1.9 0  -1.7 -1.9 0  -1.6 -1.9 0  -1.5 -1.9 0  -1.4 -1.9 0  -1.3 -1.9 0  -1.2 -1.9 0  -1.1 -1.9 0  -1 -1.9 0  -0.8999999999999999 -1.9 0  -0.8 -1.9 0  -0.7 -1.9 0  -0.6000000000000001 -1.9 0  -0.5 -1.9 0  -0.3999999999999999 -1.9 0  -0.3 -1.9 0  -0.2 -1.9 0  -0.1000000000000001 -1.9 0  0 -1.9 0  0.1000000000000001 -1.9 0  0.2000000000000002 -1.9 0  0.2999999999999998 -1.9 0  0.3999999999999999 -1.9 0  0.5 -1.9 0  0.6000000000000001 -1.9 0  0.7000000000000002 -1.9 0  0.7999999999999998 -1.9 0  0.8999999999999999 -1.9 0  1 -1.9 0  1.1 -1.9 0  1.2 -1.9 0  1.3 -1.9 0  1.4 -1.9 0  1.5 -1.9 0  1.6 -1.9 0  1.7 -1.9 0  1.8 -1.9 0  1.9 -1.9 0  2 -1.9 0  -2 -1.8 0  -1.9 -1.8 0  -1.8 -1.8 0  -1.7 -1.8 0  -1.6 -1.8 0  -1.5 -1.8 0  -1.4 -1.8 0  -1.3 -1.8 0  -1.2 -1.8 0  -1.1 -1.8 0  -1 -1.8 0  -0.8999999999999999 -1.8 0  -0.8 -1.8 0  -0.7 -1.8 0  -0.6000000000000001 -1.8 0  -0.5 -1.8 0  -0.3999999999999999 -1.8 0  -0.3 -1.8 0  -0.2 -1.8 0  -0.1000000000000001 -1.8 0  0 -1.8 0  0.1000000000000001 -1.8 0  0.2000000000000002 -1.8 0  0.2999999999999998 -1.8 0  0.3999999999999999 -1.8 0  0.5 -1.8 0  0.6000000000000001 -1.8 0  0.7000000000000002 -1.8 0  0.7999999999999998 -1.8 0  0.8999999999999999 -1.8 0  1 -1.8 0  1.1 -1.8 0  1.2 -1.8 0  1.3 -1.8 0  1.4 -1.8 0  1.5 -1.8 0  1.6 -1.8 0  1.7 -1.8 0  1.8 -1.8 0  1.9 -1.8 0  2 -1.8 0  -2 -1.7 0  -1.9 -1.7 0  -1.8 -1.7 0  -1.7 -1.7 0  -1.6 -1.7 0  -1.5 -1.7 0  -1.4 -1.7 0  -1.3 -1.7 0  -1.2 -1.7 0  -1.1 -1.7 0  -1 -1.7 0  -0.8999999999999999 -1.7 0  -0.8 -1.7 0  -0.7 -1.7 0  -0.6000000000000001 -1.7 0  -0.5 -1.7 0  -0.3999999999999999 -1.7 0  -0.3 -1.7 0  -0.2 -1.7 0  -0.1000000000000001 -1.7 0  0 -1.7 0  0.1000000000000001 -1.7 0  0.2000000000000002 -1.7 0  0.2999999999999998 -1.7 0  0.3999999999999999 -1.7 0  0.5 -1.7 0  0.6000000000000001 -1.7 0  0.7000000000000002 -1.7 0  0.7999999999999998 -1.7 0  0.8999999999999999 -1.7 0  1 -1.7 0  1.1 -1.7 0  1.2 -1.7 0  1.3 -1.7 0  1.4 -1.7 0  1.5 -1.7 0  1.6 -1.7 0  1.7 -1.7 0  1.8 -1.7 0  1.9 -1.7 0  2 -1.7 0  -2 -1.6 0  -1.9 -1.6 0  -1.8 -1.6 0  -1.7 -1.6 0  -1.6 -1.6 0  -1.5 -1.6 0  -1.4 -1.6 0  -1.3 -1.6 0  -1.2 -1.6 0  -1.1 -1.6 0  -1 -1.6 0  -0.8999999999999999 -1.6 0  -0.8 -1.6 0  -0.7 -1.6 0  -0.6000000000000001 -1.6 0  -0.5 -1.6 0  -0.3999999999999999 -1.6 0  -0.3 -1.6 0  -0.2 -1.6 0  -0.1000000000000001 -1.6 0  0 -1.6 0  0.1000000000000001 -1.6 0  0.2000000000000002 -1.6 0  0.2999999999999998 -1.6 0  0.3999999999999999 -1.6 0  0.5 -1.6 0  0.6000000000000001 -1.6 0  0.7000000000000002 -1.6 0  0.7999999999999998 -1.6 0  0.8999999999999999 -1.6 0  1 -1.6 0  1.1 -1.6 0  1.2 -1.6 0  1.3 -1.6 0  1.4 -1.6 0  1.5 -1.6 0  1.6 -1.6 0  1.7 -1.6 0  1.8 -1.6 0  1.9 -1.6 0  2 -1.6 0  -2 -1.5 0  -1.9 -1.5 0  -1.8 -1.5 0  -1.7 -1.5 0  -1.6 -1.5 0  -1.5 -1.5 0  -1.4 -1.5 0  -1.3 -1.5 0  -1.2 -1.5 0  -1.1 -1.5 0  -1 -1.5 0  -0.8999999999999999 -1.5 0  -0.8 -1.5 0  -0.7 -1.5 0  -0.6000000000000001 -1.5 0  -0.5 -1.5 0  -0.3999999999999999 -1.5 0  -0.3 -1.5 0  -0.2 -1.5 0  -0.1000000000000001 -1.5 0  0 -1.5 0  0.1000000000000001 -1.5 0  0.2000000000000002 -1.5 0  0.2999999999999998 -1.5 0  0.3999999999999999 -1.5 0  0.5 -1.5 0  0.6000000000000001 -1.5 0  0.7000000000000002 -1.5 0  0.7999999999999998 -1.5 0  0.8999999999999999 -1.5 0  1 -1.5 0  1.1 -1.5 0  1.2 -1.5 0  1.3 -1.5 0  1.4 -1.5 0  1.5 -1.5 0  1.6 -1.5 0  1.7 -1.5 0  1.8 -1.5 0  1.9 -1.5 0  2 -1.5 0  -2 -1.4 0  -1.9 -1.4 0  -1.8 -1.4 0  -1.7 -1.4 0  -1.6 -1.4 0  -1.5 -1.4 0  -1.4 -1.4 0  -1.3 -1.4 0  -1.2 -1.4 0  -1.1 -1.4 0  -1 -1.4 0  -0.8999999999999999 -1.4 0  -0.8 -1.4 0  -0.7 -1.4 0  -0.6000000000000001 -1.4 0  -0.5 -1.4 0  -0.3999999999999999 -1.4 0  -0.3 -1.4 0  -0.2 -1.4 0  -0.1000000000000001 -1.4 0  0 -1.4 0  0.1000000000000001 -1.4 0  0.2000000000000002 -1.4 0  0.2999999999999998 -1.4 0  0.3999999999999999 -1.4 0  0.5 -1.4 0  0.6000000000000001 -1.4 0  0.7000000000000002 -1.4 0  0.7999999999999998 -1.4 0  0.8999999999999999 -1.4 0  1 -1.4 0  1.1 -1.4 0  1.2 -1.4 0  1.3 -1.4 0  1.4 -1.4 0  1.5 -1.4 0  1.6 -1.4 0  1.7 -1.4 0  1.8 -1.4 0  1.9 -1.4 0  2 -1.4 0  -2 -1.3 0  -1.9 -1.3 0  -1.8 -1.3 0  -1.7 -1.3 0  -1.6 -1.3 0  -1.5 -1.3 0  -1.4 -1.3 0  -1.3 -1.3 0  -1.2 -1.3 0  -1.1 -1.3 0  -1 -1.3 0  -0.8999999999999999 -1.3 0  -0.8 -1.3 0  -0.7 -1.3 0  -0.6000000000000001 -1.3 0  -0.5 -1.3 0  -0.3999999999999999 -1.3 0  -0.3 -1.3 0  -0.2 -1.3 0  -0.1000000000000001 -1.3 0  0 -1.3 0  0.1000000000000001 -1.3 0  0.2000000000000002 -1.3 0  0.2999999999999998 -1.3 0  0.3999999999999999 -1.3 0  0.5 -1.3 0  0.6000000000000001 -1.3 0  0.7000000000000002 -1.3 0  0.7999999999999998 -1.3 0  0.8999999999999999 -1.3 0  1 -1.3 0  1.1 -1.3 0  1.2 -1.3 0  1.3 -1.3 0  1.4 -1.3 0  1.5 -1.3 0  1.6 -1.3 0  1.7 -1.3 0  1.8 -1.3 0  1.9 -1.3 0  2 -1.3 0  -2 -1.2 0  -1.9 -1.2 0  -1.8 -1.2 0  -1.7 -1.2 0  -1.6 -1.2 0  -1.5 -1.2 0  -1.4 -1.2 0  -1.3 -1.2 0  -1.2 -1.2 0  -1.1 -1.2 0  -1 -1.2 0  -0.8999999999999999 -1.2 0  -0.8 -1.2 0  -0.7 -1.2 0  -0.6000000000000001 -1.2 0  -0.5 -1.2 0  -0.3999999999999999 -1.2 0  -0.3 -1.2 0  -0.2 -1.2 0  -0.1000000000000001 -1.2 0  0 -1.2 0  0.1000000000000001 -1.2 0  0.2000000000000002 -1.2 0  0.2999999999999998 -1.2 0  0.3999999999999999 -1.2 0  0.5 -1.2 0  0.6000000000000001 -1.2 0  0.7000000000000002 -1.2 0  0.7999999999999998 -1.2 0  0.8999999999999999 -1.2 0  1 -1.2 0  1.1 -1.2 0  1.2 -1.2 0  1.3 -1.2 0  1.4 -1.2 0  1.5 -1.2 0  1.6 -1.2 0  1.7 -1.2 0  1.8 -1.2 0  1.9 -1.2 0  2 -1.2 0  -2 -1.1 0  -1.9 -1.1 0  -1.8 -1.1 0  -1.7 -1.1 0  -1.6 -1.1 0  -1.5 -1.1 0  -1.4 -1.1 0  -1.3 -1.1 0  -1.2 -1.1 0  -1.1 -1.1 0  -1 -1.1 0  -0.8999999999999999 -1.1 0  -0.8 -1.1 0  -0.7 -1.1 0  -0.6000000000000001 -1.1 0  -0.5 -1.1 0  -0.3999999999999999 -1.1 0  -0.3 -1.1 0  -0.2 -1.1 0  -0.1000000000000001 -1.1 0  0 -1.1 0  0.1000000000000001 -1.1 0  0.2000000000000002 -1.1 0  0.2999999999999998 -1.1 0  0.3999999999999999 -1.1 0  0.5 -1.1 0  0.6000000000000001 -1.1 0  0.7000000000000002 -1.1 0  0.7999999999999998 -1.1 0  0.8999999999999999 -1.1 0  1 -1.1 0  1.1 -1.1 0  1.2 -1.1 0  1.3 -1.1 0  1.4 -1.1 0  1.5 -1.1 0  1.6 -1.1 0  1.7 -1.1 0  1.8 -1.1 0  1.9 -1.1 0  2 -1.1 0  -2 -1 0  -1.9 -1 0  -1.8 -1 0  -1.7 -1 0  -1.6 -1 0  -1.5 -1 0  -1.4 -1 0  -1.3 -1 0  -1.2 -1 0  -1.1 -1 0  -1 -1 0  -0.8999999999999999 -1 0  -0.8 -1 0  -0.7 -1 0  -0.6000000000000001 -1 0  -0.5 -1 0  -0.3999999999999999 -1 0  -0.3 -1 0  -0.2 -1 0  -0.1000000000000001 -1 0  0 -1 0  0.1000000000000001 -1 0  0.2000000000000002 -1 0  0.2999999999999998 -1 0  0.3999999999999999 -1 0  0.5 -1 0  0.6000000000000001 -1 0  0.7000000000000002 -1 0  0.7999999999999998 -1 0  0.8999999999999999 -1 0  1 -1 0  1.1 -1 0  1.2 -1 0  1.3 -1 0  1.4 -1 0  1.5 -1 0  1.6 -1 0  1.7 -1 0  1.8 -1 0  1.9 -1 0  2 -1 0  -2 -0.8999999999999999 0  -1.9 -0.8999999999999999 0  -1.8 -0.8999999999999999 0  -1.7 -0.8999999999999999 0  -1.6 -0.8999999999999999 0  -1.5 -0.8999999999999999 0  -1.4 -0.8999999999999999 0  -1.3 -0.8999999999999999 0  -1.2 -0.8999999999999999 0  -1.1 -0.8999999999999999 0  -1 -0.8999999999999999 0  -0.8999999999999999 -0.8999999999999999 0  -0.8 -0.8999999999999999 0  -0.7 -0.8999999999999999 0  -0.6000000000000001 -0.8999999999999999 0  -0.5 -0.8999999999999999 0  -0.3999999999999999 -0.8999999999999999 0  -0.3 -0.8999999999999999 0  -0.2 -0.8999999999999999 0  -0.1000000000000001 -0.8999999999999999 0  0 -0.8999999999999999 0  0.1000000000000001 -0.8999999999999999 0  0.2000000000000002 -0.8999999999999999 0  0.2999999999999998 -0.8999999999999999 0  0.3999999999999999 -0.8999999999999999 0  0.5 -0.8999999999999999 0  0.6000000000000001 -0.8999999999999999 0  0.7000000000000002 -0.8999999999999999 0  0.7999999999999998 -0.8999999999999999 0  0.8999999999999999 -0.8999999999999999 0  1 -0.8999999999999999 0  1.1 -0.8999999999999999 0  1.2 -0.8999999999999999 0  1.3 -0.8999999999999999 0  1.4 -0.8999999999999999 0  1.5 -0.8999999999999999 0  1.6 -0.8999999999999999 0  1.7 -0.8999999999999999 0  1.8 -0.8999999999999999 0  1.9 -0.8999999999999999 0  2 -0.8999999999999999 0  -2 -0.8 0  -1.9 -0.8 0  -1.8 -0.8 0  -1.7 -0.8 0  -1.6 -0.8 0  -1.5 -0.8 0  -1.4 -0.8 0  -1.3 -0.8 0  -1.2 -0.8 0  -1.1 -0.8 0  -1 -0.8 0  -0.8999999999999999 -0.8 0  -0.8 -0.8 0  -0.7 -0.8 0  -0.6000000000000001 -0.8 0  -0.5 -0.8 0  -0.3999999999999999 -0.8 0  -0.3 -0.8 0  -0.2 -0.8 0  -0.1000000000000001 -0.8 0  0 -0.8 0  0.1000000000000001 -0.8 0  0.2000000000000002 -0.8 0  0.2999999999999998 -0.8 0  0.3999999999999999 -0.8 0  0.5 -0.8 0  0.6000000000000001 -0.8 0  0.7000000000000002 -0.8 0  0.7999999999999998 -0.8 0  0.8999999999999999 -0.8 0  1 -0.8 0  1.1 -0.8 0  1.2 -0.8 0  1.3 -0.8 0  1.4 -0.8 0  1.5 -0.8 0  1.6 -0.8 0  1.7 -0.8 0  1.8 -0.8 0  1.9 -0.8 0  2 -0.8 0  -2 -0.7 0  -1.9 -0.7 0  -1.8 -0.7 0  -1.7 -0.7 0  -1.6 -0.7 0  -1.5 -0.7 0  -1.4 -0.7 0  -1.3 -0.7 0  -1.2 -0.7 0  -1.1 -0.7 0  -1 -0.7 0  -0.8999999999999999 -0.7 0  -0.8 -0.7 0  -0.7 -0.7 0  -0.6000000000000001 -0.7 0  -0.5 -0.7 0  -0.3999999999999999 -0.7 0  -0.3 -0.7 0  -0.2 -0.7 0  -0.1000000000000001 -0.7 0  0 -0.7 0  0.1000000000000001 -0.7 0  0.2000000000000002 -0.7 0  0.2999999999999998 -0.7 0  0.3999999999999999 -0.7 0  0.5 -0.7 0  0.600000000000000
[...]
<PointData  Scalars="f_1726"> 
<DataArray  type="Float64"  Name="f_1726"  format="ascii">0.0000000000000000e+00  0.0000000000000000e+00  0.0000000000000000e+00  0.0000000000000000e+00  0.0000000000000000e+00  0.0000000000000000e+00  0.0000000000000000e+00  0.0000000000000000e+00  0.0000000000000000e+00  0.0000000000000000e+00  0.0000000000000000e+00  0.0000000000000000e+00  0.0000000000000000e+00  0.0000000000000000e+00  0.0000000000000000e+00  0.0000000000000000e+00  0.0000000000000000e+00  0.0000000000000000e+00  0.0000000000000000e+00  0.0000000000000000e+00  0.0000000000000000e+00  0.0000000000000000e+00  0.0000000000000000e+00  0.0000000000000000e+00  0.0000000000000000e+00  0.0000000000000000e+00  0.0000000000000000e+00  0.0000000000000000e+00  0.0000000000000000e+00  0.0000000000000000e+00  0.0000000000000000e+00  0.0000000000000000e+00  0.0000000000000000e+00  0.0000000000000000e+00  0.0000000000000000e+00  0.0000000000000000e+00  0.0000000000000000e+00  0.0000000000000000e+00  0.0000000000000000e+00  0.0000000000000000e+00  0.0000000000000000e+00  0.0000000000000000e+00  -1.5752878125047163e-11  -1.8357761810227638e-11  1.2063407460190964e-10  -2.9069391614683978e-11  -6.1096945209315504e-10  3.2917249536772222e-10  3.0061441932547154e-09  4.1359323503198997e-10  -1.2477958702223249e-08  -2.4898100951466357e-08  -2.1946526516960145e-08  -7.5643407654256026e-09  2.0471840202342055e-09  2.0740113573787629e-09  -1.9686183363856430e-10  -3.9752417694418094e-10  6.6600576592435716e-11  6.1184417150283052e-11  -2.3792234044973987e-11  -4.3467664371870152e-12  5.1800442904854421e-12  -1.0161667974185091e-12  -4.4301793139329953e-13  3.3092806840886179e-13  -7.2650705467242962e-14  -1.6505623594829704e-14  1.8231634109743963e-14  -6.5399365690916410e-15  7.6759013568912630e-16  4.9139609570445306e-16  -3.6624787253697724e-16  1.3725270064310258e-16  -3.0352895102365696e-17  2.5130628498488057e-19  3.5588495197225576e-18  -2.1407838820927888e-18  8.7101923417336164e-19  -2.8873446404723376e-19  9.1526937949613279e-20  0.0000000000000000e+00  0.0000000000000000e+00  -1.8357761810227632e-11  1.3202167203713047e-10  -1.1744628017997991e-10  -5.7835330596694385e-10  1.2145326996363093e-09  2.2699363175224454e-09  -6.5396933985739514e-09  -1.2774582624589851e-08  1.9047814621155849e-08  8.1638699560026448e-08  1.0657858991235653e-07  6.2420078534195758e-08  5.0486515280590227e-09  -1.2100338660245165e-08  -2.7504335277180058e-09  2.2465223787329327e-09  3.8007467486219213e-10  -4.5001839636195210e-10  2.0545119240322511e-11  7.0547185500424898e-11  -2.3774735277973643e-11  -3.4383326005691591e-12  4.9592078544339827e-12  -1.4344803115346071e-12  -1.3363529871894190e-13  2.6925878574728967e-13  -1.0738010655773888e-13  1.4935295968377285e-14  7.1079271954448316e-15  -5.7252567508133701e-15  2.1568529473201245e-15  -4.6049971143134565e-16  -8.5990632372201519e-18  6.0721922646336979e-17  -3.4448035215890442e-17  1.3467228367906302e-17  -4.2585868497402685e-18  1.1568243268629102e-18  -2.8873446404723410e-19  0.0000000000000000e+00  0.0000000000000000e+00  1.2063407460190970e-10  -1.1744628017997996e-10  -5.2875991328118752e-10  1.5659527449425226e-09  8.6393747831514017e-10  -9.2900852368036790e-09  5.7645042601818110e-10  4.6408141241065447e-08  1.7624341441516184e-08  -1.8877640340099310e-07  -4.0174422578075931e-07  -3.5611985433476292e-07  -1.1556910906233754e-07  3.7972713026812626e-08  3.0932294467469691e-08  -5.4965260294939203e-09  -5.5353783366918752e-09  1.6335727311841731e-09  6.5499637497884713e-10  -4.3110148907123252e-10  1.7560994182062528e-11  6.2693751707154126e-11  -2.5713644536612298e-11  7.6440584698862717e-13  3.4787581610059367e-12  -1.6867393921077745e-12  3.1071954504373759e-13  7.8920972685116881e-14  -8.2581236487332246e-14  3.3464921053026101e-14  -7.6534831934619714e-15  8.7986769092743772e-17  8.8221755329262122e-16  -5.2315069695440467e-16  2.0770282295563806e-16  -6.6316629548651225e-17  1.7970827300174376e-17  -4.2585868497402515e-18  8.7101923417335932e-19  0.0000000000000000e+00  0.0000000000000000e+00  -2.9069391614683959e-11  -5.7835330596694396e-10  1.5659527449425228e-09  2.9388645560440928e-10  -9.5153739120995327e-09  1.0835280431872927e-08  4.1531552435485480e-08  -7.5744430514691780e-08  -2.0926945636315228e-07  2.2752581978737716e-07  1.2089704782350083e-06  1.6295027361189647e-06  9.3350372320063139e-07  4.3069792509194029e-08  -1.8538431532861098e-07  -2.6216498477429705e-08  3.5005040997102192e-08  1.0534955393763880e-09  -6.2289421155717011e-09  1.2971885630832873e-09  6.3871166966334003e-10  -4.1715379100529651e-10  5.5971405571793004e-11  4.0148729313677947e-11  -2.5622353385745225e-11  6.0224529288740517e-12  6.7772664036764521e-13  -1.1645146723705945e-12  5.1818158953525965e-13  -1.2808327682068513e-13  5.4087116147592089e-15  1.2679655682128457e-14  -7.9797855947796406e-15  3.2321704135826557e-15  -1.0410470025047536e-15  2.8315029416214509e-16  -6.6316629548651558e-17  1.3467228367906327e-17  -2.1407838820927992e-18  0.0000000000000000e+00  0.0000000000000000e+00  -6.1096945209315535e-10  1.2145326996363095e-09  8.6393747831514007e-10  -9.5153739120995344e-09  1.4152051869266779e-08  3.1307334049099090e-08  -1.1958827823698833e-07  -6.6479667111391695e-08  6.4515461122794840e-07  4.4419740001753952e-07  -2.6275507164740119e-06  -6.0730245286392771e-06  -5.4127424431750451e-06  -1.6168560787521484e-06  6.5782301802378695e-07  4.1213894845695557e-07  -1.1906257743867446e-07  -6.3466194920754284e-08  3.1152813244506838e-08  3.3538141058276182e-09  -6.0062980867711454e-09  1.4776273216273542e-09  3.6746618265779750e-10  -3.7104380594320721e-10  1.0973585860976914e-10  1.4401718308448289e-12  -1.5900711608273814e-11  7.9491445455826112e-12  -2.1311442858612108e-12  1.5094146675272422e-13  1.7969410234282913e-13  -1.2150412420583850e-13  5.0321585493099179e-14  -1.6353859196881122e-14  4.4578067319678573e-15  -1.0410470025047523e-15  2.0770282295563860e-16  -3.4448035215890399e-17  3.5588495197225592e-18  0.0000000000000000e+00  0.0000000000000000e+00  3.2917249536772351e-10  2.2699363175224450e-09  -9.2900852368036790e-09  1.0835280431872931e-08  3.1307334049099096e-08  -1.2918084656129622e-07  3.4982828253843447e-08  6.8094319618026979e-07  -7.3151813541061006e-07  -3.3264240270987628e-06  2.4196368514365354e-06  1.7793297770015270e-05  2.4916907510946711e-05  1.3880766308159095e-05  6.7806303510995223e-08  -2.7863203749653443e-06  -1.3134290935602619e-07  5.1011463378015814e-07  -5.7152542253691822e-08  -7.1919663367093723e-08  2.9815280644793166e-08  1.2344849983019876e-09  -5.0049352021105952e-09  1.8953696255685846e-09  -1.2552209746469842e-10  -2.0660654159154344e-10  1.2035497519231371e-10  -3.5219455549073861e-11  3.4568600727788257e-12  2.4942438574312705e-12  -1.8442124512413708e-12  7.8344077564990505e-13  -2.5715550706795088e-13  7.0255718883590778e-14  -1.6353859196881125e-14  3.2321704135826522e-15  -5.2315069695440635e-16  6.0721922646337065e-17  2.5130628498484229e-19  0.0000000000000000e+00  0.0000000000000000e+00  3.0061441932547158e-09  -6.5396933985739572e-09  5.7645042601819310e-10  4.1531552435485440e-08  -1.1958827823698831e-07  3.4982828253843434e-08  6.4783181421815912e-07  -1.2930079519947605e-06  -2.0534418439112393e-06  8.4755256775180550e-06  9.4229538948618307e-06  -3.5876783544474366e-05  -9.2092565836610990e-05  -8.2562142562791555e-05  -2.2119091080485262e-05  1.1257698966654545e-05  5.1363454067756721e-06  -2.2671651187053302e-06  -5.5928601901716956e-07  5.0047984181215853e-07  -5.3205975917707367e-08  -5.9822802849889846e-08  3.0980035080175452e-08  -4.2904590948131977e-09  -2.4689268968158000e-09  1.7895541580292811e-09  -5.7755621542963007e-10  7.2211816445360572e-11  3.3590167200251576e-11  -2.7876925077054353e-11  1.2196307787483056e-11  -4.0484371923753650e-12  1.1088183473235628e-12  -2.5715550706795134e-13  5.0321585493099299e-14  -7.9797855947796596e-15  8.8221755329262753e-16  -8.5990632372209192e-18  -3.0352895102365585e-17  0.0000000000000000e+00  0.0000000000000000e+00  4.1359323503198118e-10  -1.2774582624589841e-08  4.6408141241065467e-08  -7.5744430514691833e-08  -6.6479667111391549e-08  6.8094319618026937e-07  -1.2930079519947598e-06  -1.3949811163964541e-06  9.9342843493660696e-06  -4.0076045327378778e-06  -5.1173117997380353e-05  1.9528043033057468e-05  2.6113410144526229e-04  3.8322948478656887e-04  2.0595176862103391e-04  -9.1856062841451087e-06  -4.0878891816601332e-05  2.4109963371661498e-06  6.7331681878889730e-06  -1.8493346550749292e-06  -5.4805016566112293e-07  4.7279074665590213e-07  -1.0194503929563974e-07  -2.4900960339795991e-08  2.5922192917309088e-08  -9.3824299236245569e-09  1.4299046404631893e-09  4.3158575759463471e-10  -4.1911953803961758e-10  1.8983558528411086e-10  -6.3822893606604710e-11  1.7529046760629985e-11  -4.0484371923753489e-12  7.8344077564990273e-13  -1.2150412420583817e-13  1.2679655682128395e-14  8.7986769092750847e-17  -4.6049971143134486e-16  1.3725270064310231e-16  0.0000000000000000e+00  0.0000000000000000e+00  -1.2477958702223267e-08  1.9047814621155912e-08  1.7624341441516115e-08  -2.0926945636315220e-07  6.4515461122794861e-07  -7.3151813541061048e-07  -2.0534418439112380e-06  9.9342843493660713e-06  -8.8746235927721872e-06  -4.3664080712882362e-05  1.0071454860714432e-04  1.8281575369419431e-04  -4.7512753224684723e-04  -1.4027352241446163e-03  -1.2656067293153135e-03  -2.9159119776136388e-04  1.9013780487002160e-04  5.6076564831021998e-05  -3.8965408791328666e-05  -1.1456820567682528e-06  6.5034957750221415e-06  -2.0679463419309244e-06  -1.4584197437096605e-07  3.6068943172464948e-07  -1.5055100026458412e-07  2.7330856342957214e-08  5.1110652124021484e-09  -6.2557554436783149e-09  2.9538271480155580e-09  -1.0077737419946156e-09  2.7765135661734397e-10  -6.3822893606605033e-11  1.2196307787483084e-11  -1.8442124512413813e-12  1.7969410234283109e-13  5.4087116147588208e-15  -7.6534831934619351e-15  2.1568529473201135e-15  -3.6624787253697635e-16  0.0000000000000000e+00  0.0000000000000000e+00  -2.4898100951466357e-08  8.1638699560026514e-08  -1.8877640340099345e-07  2.2752581978737774e-07  4.4419740001753836e-07  -3.3264240270987624e-06  8.4755256775180566e-06  -4.0076045327378905e-06  -4.3664080712882349e-05  1.2114348244938364e-04  5.4583360770386468e-05  -7.5065049122467352e-04  4.7100742652911474e-06  3.8137054902153168e-03  5.9410907782832386e-03  3.0431490573747970e-03  -3.2115332916748685e-04  -5.7483731122338845e-04  1.0630661629405097e-04  7.3125758227257282e-05  -3.7371669239666883e-05  1.9472878818458060e-06  4.6894813220000707e-06  -2.3741088548287989e-06  5.0906642325080718e-07  5.0954444850399165e-08  -9.2435151214562087e-08  4.5934952128298875e-08  -1.5943168664073748e-08  4.4080349627028613e-09  -1.0077737419946146e-09  1.8983558528411135e-10  -2.7876925077054330e-11  2.4942438574312697e-12  1.5094146675272516e-13  -1.2808327682068521e-13  3.3464921053026221e-14  -5.7252567508133709e-15  4.9139609570445404e-16  0.0000000000000000e+00  0.0000000000000000e+00  -2.1946526516960115e-08  1.0657858991235647e-07  -4.0174422578075931e-07  1.2089704782350083e-06  -2.6275507164740145e-06  2.4196368514365426e-06  9.4229538948618154e-06  -5.1173117997380339e-05  1.0071454860714430e-04  5.4583360770386373e-05  -7.5370689230901339e-04  9.5363828470096097e-04  3.3333914084599449e-03  -5.9553207171454048e-03  -2.1494862631791626e-02  -1.9530233969837489e-02  -3.5826344148898476e-03  3.1535088902187483e-03  4.2296995990607242e-04  -5.9249726472566813e-04  1.0040252817672469e-04  5.3340599844505150e-05  -3.6453649229278653e-05  9.2838434626241119e-06  2.7759994551156762e-07  -1.3459536412301162e-06  7.1364156524552736e-07  -2.5280049752336619e-07  7.0178563422718210e-08  -1.5943168664073751e-08  2.9538271480155576e-09  -4.1911953803961919e-10  3.3590167200251699e-11  3.4568600727787934e-12  -2.1311442858612043e-12  5.1818158953525743e-13  -8.2581236487332107e-14  7.1079271954447701e-15  7.6759013568913487e-16  0.0000000000000000e+00  0.0000000000000000e+00  -7.5643407654255910e-09  6.2420078534195666e-08  -3.5611985433476260e-07  1.6295027361189641e-06  -6.0730245286392737e-06  1.7793297770015273e-05  -3.5876783544474386e-05  1.9528043033057545e-05  1.8281575369419420e-04  -7.5065049122467330e-04  9.5363828470096130e-04  2.5355927062673720e-03  -1.0124537592398085e-02  -4.9818402764903041e-03  5.5191570543983041e-02  9.3157160380124754e-02  4.4594813098028860e-02  -8.1774530868142636e-03  -7.4237248715404974e-03  2.5999755874589834e-03  4.1919702507107624e-04  -5.3497786089055151e-04  1.6593644143071673e-04  -5.1038096767105989e-06  -1.9162254532412407e-05  1.1069036527432565e-05  -4.0197256474713435e-06  1.1211466651631804e-06  -2.5280049752336656e-07  4.5934952128298981e-08  -6.2557554436783306e-09  4.3158575759463859e-10  7.2211816445360042e-11  -3.5219455549073816e-11  7.9491445455826047e-12  -1.1645146723705929e-12  7.8920972685116995e-14  1.4935295968377266e-14  -6.5399365690916394e-15  0.0000000000000000e+00  0.0000000000000000e+00  2.0471840202342092e-09  5.0486515280589822e-09  -1.1556910906233728e-07  9.3350372320062991e-07  -5.4127424431750408e-06  2.4916907510946701e-05  -9.2092565836610990e-05  2.6113410144526224e-04  -4.7512753224684772e-04  4.7100742652920901e-06  3.3333914084599436e-03  -1.0124537592398085e-02  3.0274241868851262e-03  5.7211400796406804e-02  -6.6277948556260194e-02  -3.3220752466014541e-01  -3.0423412515623965e-01  -3.7238081480614332e-02  5.0634727139183114e-02  -1.8361256881328121e-03  -7.1846642798069765e-03  2.8956975756006492e-03  -2.5448451221509214e-04  -2.6278238434920760e-04  1.7121158781937840e-04  -6.4141627901403799e-05  1.7989371377443294e-05  -4.0197256474713275e-06  7.1364156524552525e-07  -9.2435151214561743e-08  5.1110652124020996e-09  1.4299046404631967e-09  -5.7755621542962852e-10  1.2035497519231338e-10  -1.5900711608273730e-11  6.7772664036763117e-13  3.1071954504374022e-13  -1.0738010655773891e-13  1.8231634109743960e-14  0.0000000000000000e+00  0.0000000000000000e+00  2.0740113573787625e-09  -1.2100338660245163e-08  3.7972713026812652e-08  4.3069792509193718e-08  -1.6168560787521460e-06  1.3880766308159082e-05  -8.2562142562791487e-05  3.8322948478656881e-04  -1.4027352241446163e-03  3.8137054902153199e-03  -5.9553207171454108e-03  -4.9818402764902946e-03  5.7211400796406825e-02  -1.1241194334578135e-01  -1.6478425652971429e-01  7.8365403099478881e-01  1.4868083362435689e+00  6.4165686867124971e-01  -1.8518137147702574e-01  -7.6978152593192670e-02  4.8661084804880073e-02  -7.2654883009366147e-03  -3.3584396825132967e-03  2.6352234839831187e-03  -1.0281495966269363e-03  2.9029767972977487e-04  -6.4141627901404124e-05  1.1069036527432592e-05  -1.3459536412301244e-06  5.0954444850400701e-08  2.7330856342956906e-08  -9.3824299236245353e-09  1.7895541580292726e-09  -2.0660654159154269e-10  1.4401718308447447e-12  6.0224529288740468e-12  -1.6867393921077775e-12  2.6925878574728896e-13  -1.6505623594829625e-14  0.0000000000000000e+00  0.0000000000000000e+00  -1.9686183363856518e-10  -2.7504335277180020e-09  3.0932294467469685e-08  -1.8538431532861098e-07  6.5782301802378758e-07  6.7806303510988222e-08  -2.2119091080485225e-05  2.0595176862103366e-04  -1.2656067293153126e-03  5.9410907782832369e-03  -2.1494862631791640e-02  5.5191570543983083e-02  -6.6277948556260333e-02  -1.6478425652971421e-01  8.9362500921191179e-01  -5.0236322469007433e-01  -5.2025144515845705e+00  -4.8080649463879537e+00  -1.8534012990284054e-01  7.5347396100504327e-01  -1.7619245545426623e-01  -3.6377575508376621e-02  4.0183308507635955e-02  -1.6581649121732610e-02  4.7210069519038021e-03  -1.0281495966269350e-03  1.7121158781937873e-04  -1.9162254532412373e-05  2.7759994551156371e-07  5.0906642325080792e-07  -1.5055100026458409e-07  2.5922192917309170e-08  -2.4689268968158004e-09  -1.2552209746469809e-10  1.0973585860976914e-10  -2.5622353385745199e-11  3.4787581610059452e-12  -1.3363529871894170e-13  -7.2650705467242937e-14  0.0000000000000000e+00  0.0000000000000000e+00  -3.9752417694418119e-10  2.2465223787329356e-09  -5.4965260294939368e-09  -2.6216498477429599e-08  4.1213894845695514e-07  -2.7863203749653439e-06  1.1257698966654547e-05  -9.1856062841451460e-06  -2.9159119776136355e-04  3.0431490573747931e-03  -1.9530233969837468e-02  9.3157160380124712e-02  -3.3220752466014536e-01  7.8365403099478947e-01  -5.0236322469007555e-01  -4.0623069994647265e+00  1.0599163330150287e+01  2.4483457222246400e+01  8.7934074115033845e+00  -3.9244012766700136e+00  -1.9405461569213686e-01  6.0072421100217466e-01  -2.6975641117558469e-01  7.7635493457765298e-02  -1.6581649121732610e-02  2.6352234839831169e-03  -2.6278238434920869e-04  -5.1038096767104321e-06  9.2838434626240797e-06  -2.3741088548287908e-06  3.6068943172464763e-07  -2.4900960339795770e-08  -4.2904590948132390e-09  1.8953696255685908e-09  -3.7104380594320809e-10  4.0148729313677992e-11  7.6440584698862394e-13  -1.4344803115346050e-12  3.3092806840886189e-13  0.0000000000000000e+00  0.0000000000000000e+00  6.6600576592435884e-11  3.8007467486219207e-10  -5.5353783366918777e-09  3.5005040997102199e-08  -1.1906257743867454e-07  -1.3134290935602592e-07  5.1363454067756738e-06  -4.0878891816601338e-05  1.9013780487002168e-04  -3.2115332916748750e-04  -3.5826344148898424e-03  4.4594813098028832e-02  -3.0423412515623949e-01  1.4868083362435687e+00  -5.2025144515845714e+00  1.0599163330150297e+01  4.3799016229194399e+00  -8.3375097628122731e+01  -7.7909369670692328e+01  6.8019958273554062e+00  8.5324980364767988e+00  -4.4475093728632134e+00  1.2990273201030880e+00  -2.6975641117558524e-01  4.0183308507636052e-02  -3.3584396825133136e-03  -2.5448451221508949e-04  1.6593644143071603e-04  -3.6453649229278626e-05  4.6894813220000673e-06  -1.4584197437096647e-07  -1.0194503929563990e-07  3.0980035080175405e-08  -5.0049352021105886e-09  3.6746618265779641e-10  5.5971405571793217e-11  -2.5713644536612401e-11  4.9592078544339835e-12  -4.4301793139330024e-13  0.0000000000000000e+00  0.0000000000000000e+00  6.1184417150283130e-11  -4.5001839636195257e-10  1.6335727311841743e-09  1.0534955393763942e-09  -6.3466194920754377e-08  5.1011463378015899e-07  -2.2671651187053345e-06  2.4109963371661587e-06  5.6076564831021977e-05  -5.7483731122338877e-04  3.1535088902187513e-03  -8.1774530868142722e-03  -3.7238081480614263e-02  6.4165686867124916e-01  -4.8080649463879528e+00  2.4483457222246400e+01  -8.3375097628122759e+01  1.1844262160526418e+02  4.3234172169761490e+02  9.8696718673289709e+01  -7.5055204264450481e+01  2.2413442546312954e+01  -4.4475093728631974e+00  6.0072421100217277e-01  -3.6377575508376336e-02  -7.2654883009366277e-03  2.8956975756006544e-03  -5.3497786089054989e-04  5.3340599844504953e-05  1.9472878818458475e-06  -2.0679463419309290e-06  4.7279074665590419e-07  -5.9822802849889912e-08  1.2344849983020071e-09  1.4776273216273507e-09  -4.1715379100529522e-10  6.2693751707154088e-11  -3.4383326005691272e-12  -1.0161667974185116e-12  0.0000000000000000e+00  0.0000000000000000e+00  -2.3792234044974007e-11  2.0545119240322424e-11  6.5499637497884837e-10  -6.2289421155717102e-09  3.1152813244506864e-08  -5.7152542253691822e-08  -5.5928601901717083e-07  6.7331681878889840e-06  -3.8965408791328699e-05  1.0630661629405100e-04  4.2296995990607366e-04  -7.4237248715405086e-03  5.0634727139183135e-02  -1.8518137147702579e-01  -1.8534012990283949e-01  8.7934074115033898e+00  -7.7909369670692357e+01  4.3234172169761501e+02  -1.4062439965419526e+03  -1.3335526340052138e+03  4.1426564851251135e+02  -7.5055204264450808e+01  8.5324980364768255e+00  -1.9405461569214366e-01  -1.7619245545426498e-01  4.8661084804879795e-02  -7.1846642798069574e-03  4.1919702507107044e-04  1.0040252817672545e-04  -3.7371669239666978e-05  6.5034957750221466e-06  -5.4805016566112452e-07  -5.3205975917707347e-08  2.9815280644793206e-08  -6.006298086771153