<?xml version="1.0"?>
<VTKFile type="UnstructuredGrid"  version="0.1"  >
<UnstructuredGrid>
<Piece  NumberOfPoints="1681" NumberOfCells="3200">
<Points>
<DataArray  type="Float64"  NumberOfComponents="3"  format="ascii">-2 -2 0  -1.9 -2 0  -1.8 -2 0  -1.7 -2 0  -1.6 -2 0  -1.5 -2 0  -1.4 -2 0  -1.3 -2 0  -1.2 -2 0  -1.1 -2 0  -1 -2 0  -0.8999999999999999 -2 0  -0.8 -2 0  -0.7 -2 0  -0.6000000000000001 -2 0  -0.5 -2 0  -0.3999999999999999 -2 0  -0.3 -2 0  -0.2 -2 0  -0.1000000000000001 -2 0  0 -2 0  0.1000000000000001 -2 0  0.2000000000000002 -2 0  0.2999999999999998 -2 0  0.3999999999999999 -2 0  0.5 -2 0  0.6000000000000001 -2 0  0.7000000000000002 -2 0  0.7999999999999998 -2 0  0.8999999999999999 -2 0  1 -2 0  1.1 -2 0  1.2 -2 0  1.3 -2 0  1.4 -2 0  1.5 -2 0  1.6 -2 0  1.7 -2 0  1.8 -2 0  1.9 -2 0  2 -2 0  -2 -1.9 0  -1.9 -1.9 0  -1.8 -1.9 0  -1.7 -1.9 0  -1.6 -1.9 0  -1.5 -1.9 0  -1.4 -1.9 0  -1.3 -1.9 0  -1.2 -1.9 0  -1.1 -1.9 0  -1 -1.9 0  -0.8999999999999999 -1.9 0  -0.8 -1.9 0  -0.7 -1.9 0  -0.6000000000000001 -1.9 0  -0.5 -1.9 0  -0.3999999999999999 -1.9 0  -0.3 -1.9 0  -0.2 -1.9 0  -0.1000000000000001 -1.9 0  0 -1.9 0  0.1000000000000001 -1.9 0  0.2000000000000002 -1.9 0  0.2999999999999998 -1.9 0  0.3999999999999999 -1.9 0  0.5 -1.9 0  0.6000000000000001 -1.9 0  0.7000000000000002 -1.9 0  0.7999999999999998 -1.9 0  0.8999999999999999 -1.9 0  1 -1.9 0  1.1 -1.9 0  1.2 -1.9 0  1.3 -1.9 0  1.4 -1.9 0  1.5 -1.9 0  1.6 -1.9 0  1.7 -1.9 0  1.8 -1.9 0  1.9 -1.9 0  2 -1.9 0  -2 -1.8 0  -1.9 -1.8 0  -1.8 -1.8 0  -1.7 -1.8 0  -1.6 -1.8 0  -1.5 -1.8 0  -1.4 -1.8 0  -1.3 -1.8 0  -1.2 -1.8 0  -1.1 -1.8 0  -1 -1.8 0  -0.8999999999999999 -1.8 0  -0.8 -1.8 0  -0.7 -1.8 0  -0.6000000000000001 -1.8 0  -0.5 -1.8 0  -0.3999999999999999 -1.8 0  -0.3 -1.8 0  -0.2 -1.8 0  -0.1000000000000001 -1.8 0  0 -1.8 0  0.1000000000000001 -1.8 0  0.2000000000000002 -1.8 0  0.2999999999999998 -1.8 0  0.3999999999999999 -1.8 0  0.5 -1.8 0  0.6000000000000001 -1.8 0  0.7000000000000002 -1.8 0  0.7999999999999998 -1.8 0  0.8999999999999999 -1.8 0  1 -1.8 0  1.1 -1.8 0  1.2 -1.8 0  1.3 -1.8 0  1.4 -1.8 0  1.5 -1.8 0  1.6 -1.8 0  1.7 -1.8 0  1.8 -1.8 0  1.9 -1.8 0  2 -1.8 0  -2 -1.7 0  -1.9 -1.7 0  -1.8 -1.7 0  -1.7 -1.7 0  -1.6 -1.7 0  -1.5 -1.7 0  -1.4 -1.7 0  -1.3 -1.7 0  -1.2 -1.7 0  -1.1 -1.7 0  -1 -1.7 0  -0.8999999999999999 -1.7 0  -0.8 -1.7 0  -0.7 -1.7 0  -0.6000000000000001 -1.7 0  -0.5 -1.7 0  -0.3999999999999999 -1.7 0  -0.3 -1.7 0  -0.2 -1.7 0  -0.1000000000000001 -1.7 0  0 -1.7 0  0.1000000000000001 -1.7 0  0.2000000000000002 -1.7 0  0.2999999999999998 -1.7 0  0.3999999999999999 -1.7 0  0.5 -1.7 0  0.6000000000000001 -1.7 0  0.7000000000000002 -1.7 0  0.7999999999999998 -1.7 0  0.8999999999999999 -1.7 0  1 -1.7 0  1.1 -1.7 0  1.2 -1.7 0  1.3 -1.7 0  1.4 -1.7 0  1.5 -1.7 0  1.6 -1.7 0  1.7 -1.7 0  1.8 -1.7 0  1.9 -1.7 0  2 -1.7 0  -2 -1.6 0  -1.9 -1.6 0  -1.8 -1.6 0  -1.7 -1.6 0  -1.6 -1.6 0  -1.5 -1.6 0  -1.4 -1.6 0  -1.3 -1.6 0  -1.2 -1.6 0  -1.1 -1.6 0  -1 -1.6 0  -0.8999999999999999 -1.6 0  -0.8 -1.6 0  -0.7 -1.6 0  -0.6000000000000001 -1.6 0  -0.5 -1.6 0  -0.3999999999999999 -1.6 0  -0.3 -1.6 0  -0.2 -1.6 0  -0.1000000000000001 -1.6 0  0 -1.6 0  0.1000000000000001 -1.6 0  0.2000000000000002 -1.6 0  0.2999999999999998 -1.6 0  0.3999999999999999 -1.6 0  0.5 -1.6 0  0.6000000000000001 -1.6 0  0.7000000000000002 -1.6 0  0.7999999999999998 -1.6 0  0.8999999999999999 -1.6 0  1 -1.6 0  1.1 -1.6 0  1.2 -1.6 0  1.3 -1.6 0  1.4 -1.6 0  1.5 -1.6 0  1.6 -1.6 0  1.7 -1.6 0  1.8 -1.6 0  1.9 -1.6 0  2 -1.6 0  -2 -1.5 0  -1.9 -1.5 0  -1.8 -1.5 0  -1.7 -1.5 0  -1.6 -1.5 0  -1.5 -1.5 0  -1.4 -1.5 0  -1.3 -1.5 0  -1.2 -1.5 0  -1.1 -1.5 0  -1 -1.5 0  -0.8999999999999999 -1.5 0  -0.8 -1.5 0  -0.7 -1.5 0  -0.6000000000000001 -1.5 0  -0.5 -1.5 0  -0.3999999999999999 -1.5 0  -0.3 -1.5 0  -0.2 -1.5 0  -0.1000000000000001 -1.5 0  0 -1.5 0  0.1000000000000001 -1.5 0  0.2000000000000002 -1.5 0  0.2999999999999998 -1.5 0  0.3999999999999999 -1.5 0  0.5 -1.5 0  0.6000000000000001 -1.5 0  0.7000000000000002 -1.5 0  0.7999999999999998 -1.5 0  0.8999999999999999 -1.5 0  1 -1.5 0  1.1 -1.5 0  1.2 -1.5 0  1.3 -1.5 0  1.4 -1.5 0  1.5 -1.5 0  1.6 -1.5 0  1.7 -1.5 0  1.8 -1.5 0  1.9 -1.5 0  2 -1.5 0  -2 -1.4 0  -1.9 -1.4 0  -1.8 -1.4 0  -1.7 -1.4 0  -1.6 -1.4 0  -1.5 -1.4 0  -1.4 -1.4 0  -1.3 -1.4 0  -1.2 -1.4 0  -1.1 -1.4 0  -1 -1.4 0  -0.8999999999999999 -1.4 0  -0.8 -1.4 0  -0.7 -1.4 0  -0.6000000000000001 -1.4 0  -0.5 -1.4 0  -0.3999999999999999 -1.4 0  -0.3 -1.4 0  -0.2 -1.4 0  -0.1000000000000001 -1.4 0  0 -1.4 0  0.1000000000000001 -1.4 0  0.2000000000000002 -1.4 0  0.2999999999999998 -1.4 0  0.3999999999999999 -1.4 0  0.5 -1.4 0  0.6000000000000001 -1.4 0  0.7000000000000002 -1.4 0  0.7999999999999998 -1.4 0  0.8999999999999999 -1.4 0  1 -1.4 0  1.1 -1.4 0  1.2 -1.4 0  1.3 -1.4 0  1.4 -1.4 0  1.5 -1.4 0  1.6 -1.4 0  1.7 -1.4 0  1.8 -1.4 0  1.9 -1.4 0  2 -1.4 0  -2 -1.3 0  -1.9 -1.3 0  -1.8 -1.3 0  -1.7 -1.3 0  -1.6 -1.3 0  -1.5 -1.3 0  -1.4 -1.3 0  -1.3 -1.3 0  -1.2 -1.3 0  -1.1 -1.3 0  -1 -1.3 0  -0.8999999999999999 -1.3 0  -0.8 -1.3 0  -0.7 -1.3 0  -0.6000000000000001 -1.3 0  -0.5 -1.3 0  -0.3999999999999999 -1.3 0  -0.3 -1.3 0  -0.2 -1.3 0  -0.1000000000000001 -1.3 0  0 -1.3 0  0.1000000000000001 -1.3 0  0.2000000000000002 -1.3 0  0.2999999999999998 -1.3 0  0.3999999999999999 -1.3 0  0.5 -1.3 0  0.6000000000000001 -1.3 0  0.7000000000000002 -1.3 0  0.7999999999999998 -1.3 0  0.8999999999999999 -1.3 0  1 -1.3 0  1.1 -1.3 0  1.2 -1.3 0  1.3 -1.3 0  1.4 -1.3 0  1.5 -1.3 0  1.6 -1.3 0  1.7 -1.3 0  1.8 -1.3 0  1.9 -1.3 0  2 -1.3 0  -2 -1.2 0  -1.9 -1.2 0  -1.8 -1.2 0  -1.7 -1.2 0  -1.6 -1.2 0  -1.5 -1.2 0  -1.4 -1.2 0  -1.3 -1.2 0  -1.2 -1.2 0  -1.1 -1.2 0  -1 -1.2 0  -0.8999999999999999 -1.2 0  -0.8 -1.2 0  -0.7 -1.2 0  -0.6000000000000001 -1.2 0  -0.5 -1.2 0  -0.3999999999999999 -1.2 0  -0.3 -1.2 0  -0.2 -1.2 0  -0.1000000000000001 -1.2 0  0 -1.2 0  0.1000000000000001 -1.2 0  0.2000000000000002 -1.2 0  0.2999999999999998 -1.2 0  0.3999999999999999 -1.2 0  0.5 -1.2 0  0.6000000000000001 -1.2 0  0.7000000000000002 -1.2 0  0.7999999999999998 -1.2 0  0.8999999999999999 -1.2 0  1 -1.2 0  1.1 -1.2 0  1.2 -1.2 0  1.3 -1.2 0  1.4 -1.2 0  1.5 -1.2 0  1.6 -1.2 0  1.7 -1.2 0  1.8 -1.2 0  1.9 -1.2 0  2 -1.2 0  -2 -1.1 0  -1.9 -1.1 0  -1.8 -1.1 0  -1.7 -1.1 0  -1.6 -1.1 0  -1.5 -1.1 0  -1.4 -1.1 0  -1.3 -1.1 0  -1.2 -1.1 0  -1.1 -1.1 0  -1 -1.1 0  -0.8999999999999999 -1.1 0  -0.8 -1.1 0  -0.7 -1.1 0  -0.6000000000000001 -1.1 0  -0.5 -1.1 0  -0.3999999999999999 -1.1 0  -0.3 -1.1 0  -0.2 -1.1 0  -0.1000000000000001 -1.1 0  0 -1.1 0  0.1000000000000001 -1.1 0  0.2000000000000002 -1.1 0  0.2999999999999998 -1.1 0  0.3999999999999999 -1.1 0  0.5 -1.1 0  0.6000000000000001 -1.1 0  0.7000000000000002 -1.1 0  0.7999999999999998 -1.1 0  0.8999999999999999 -1.1 0  1 -1.1 0  1.1 -1.1 0  1.2 -1.1 0  1.3 -1.1 0  1.4 -1.1 0  1.5 -1.1 0  1.6 -1.1 0  1.7 -1.1 0  1.8 -1.1 0  1.9 -1.1 0  2 -1.1 0  -2 -1 0  -1.9 -1 0  -1.8 -1 0  -1.7 -1 0  -1.6 -1 0  -1.5 -1 0  -1.4 -1 0  -1.3 -1 0  -1.2 -1 0  -1.1 -1 0  -1 -1 0  -0.8999999999999999 -1 0  -0.8 -1 0  -0.7 -1 0  -0.6000000000000001 -1 0  -0.5 -1 0  -0.3999999999999999 -1 0  -0.3 -1 0  -0.2 -1 0  -0.1000000000000001 -1 0  0 -1 0  0.1000000000000001 -1 0  0.2000000000000002 -1 0  0.2999999999999998 -1 0  0.3999999999999999 -1 0  0.5 -1 0  0.6000000000000001 -1 0  0.7000000000000002 -1 0  0.7999999999999998 -1 0  0.8999999999999999 -1 0  1 -1 0  1.1 -1 0  1.2 -1 0  1.3 -1 0  1.4 -1 0  1.5 -1 0  1.6 -1 0  1.7 -1 0  1.8 -1 0  1.9 -1 0  2 -1 0  -2 -0.8999999999999999 0  -1.9 -0.8999999999999999 0  -1.8 -0.8999999999999999 0  -1.7 -0.8999999999999999 0  -1.6 -0.8999999999999999 0  -1.5 -0.8999999999999999 0  -1.4 -0.8999999999999999 0  -1.3 -0.8999999999999999 0  -1.2 -0.8999999999999999 0  -1.1 -0.8999999999999999 0  -1 -0.8999999999999999 0  -0.8999999999999999 -0.8999999999999999 0  -0.8 -0.8999999999999999 0  -0.7 -0.8999999999999999 0  -0.6000000000000001 -0.8999999999999999 0  -0.5 -0.8999999999999999 0  -0.3999999999999999 -0.8999999999999999 0  -0.3 -0.8999999999999999 0  -0.2 -0.8999999999999999 0  -0.1000000000000001 -0.8999999999999999 0  0 -0.8999999999999999 0  0.1000000000000001 -0.8999999999999999 0  0.2000000000000002 -0.8999999999999999 0  0.2999999999999998 -0.8999999999999999 0  0.3999999999999999 -0.8999999999999999 0  0.5 -0.8999999999999999 0  0.6000000000000001 -0.8999999999999999 0  0.7000000000000002 -0.8999999999999999 0  0.7999999999999998 -0.8999999999999999 0  0.8999999999999999 -0.8999999999999999 0  1 -0.8999999999999999 0  1.1 -0.8999999999999999 0  1.2 -0.8999999999999999 0  1.3 -0.8999999999999999 0  1.4 -0.8999999999999999 0  1.5 -0.8999999999999999 0  1.6 -0.8999999999999999 0  1.7 -0.8999999999999999 0  1.8 -0.8999999999999999 0  1.9 -0.8999999999999999 0  2 -0.8999999999999999 0  -2 -0.8 0  -1.9 -0.8 0  -1.8 -0.8 0  -1.7 -0.8 0  -1.6 -0.8 0  -1.5 -0.8 0  -1.4 -0.8 0  -1.3 -0.8 0  -1.2 -0.8 0  -1.1 -0.8 0  -1 -0.8 0  -0.8999999999999999 -0.8 0  -0.8 -0.8 0  -0.7 -0.8 0  -0.6000000000000001 -0.8 0  -0.5 -0.8 0  -0.3999999999999999 -0.8 0  -0.3 -0.8 0  -0.2 -0.8 0  -0.1000000000000001 -0.8 0  0 -0.8 0  0.1000000000000001 -0.8 0  0.2000000000000002 -0.8 0  0.2999999999999998 -0.8 0  0.3999999999999999 -0.8 0  0.5 -0.8 0  0.6000000000000001 -0.8 0  0.7000000000000002 -0.8 0  0.7999999999999998 -0.8 0  0.8999999999999999 -0.8 0  1 -0.8 0  1.1 -0.8 0  1.2 -0.8 0  1.3 -0.8 0  1.4 -0.8 0  1.5 -0.8 0  1.6 -0.8 0  1.7 -0.8 0  1.8 -0.8 0  1.9 -0.8 0  2 -0.8 0  -2 -0.7 0  -1.9 -0.7 0  -1.8 -0.7 0  -1.7 -0.7 0  -1.6 -0.7 0  -1.5 -0.7 0  -1.4 -0.7 0  -1.3 -0.7 0  -1.2 -0.7 0  -1.1 -0.7 0  -1 -0.7 0  -0.8999999999999999 -0.7 0  -0.8 -0.7 0  -0.7 -0.7 0  -0.6000000000000001 -0.7 0  -0.5 -0.7 0  -0.3999999999999999 -0.7 0  -0.3 -0.7 0  -0.2 -0.7 0  -0.1000000000000001 -0.7 0  0 -0.7 0  0.1000000000000001 -0.7 0  0.2000000000000002 -0.7 0  0.2999999999999998 -0.7 0  0.3999999999999999 -0.7 0  0.5 -0.7 0  0.600000000000000
[...]
<PointData  Scalars="f_1726"> 
<DataArray  type="Float64"  Name="f_1726"  format="ascii">0.0000000000000000e+00  0.0000000000000000e+00  0.0000000000000000e+00  0.0000000000000000e+00  0.0000000000000000e+00  0.0000000000000000e+00  0.0000000000000000e+00  0.0000000000000000e+00  0.0000000000000000e+00  0.0000000000000000e+00  0.0000000000000000e+00  0.0000000000000000e+00  0.0000000000000000e+00  0.0000000000000000e+00  0.0000000000000000e+00  0.0000000000000000e+00  0.0000000000000000e+00  0.0000000000000000e+00  0.0000000000000000e+00  0.0000000000000000e+00  0.0000000000000000e+00  0.0000000000000000e+00  0.0000000000000000e+00  0.0000000000000000e+00  0.0000000000000000e+00  0.0000000000000000e+00  0.0000000000000000e+00  0.0000000000000000e+00  0.0000000000000000e+00  0.0000000000000000e+00  0.0000000000000000e+00  0.0000000000000000e+00  0.0000000000000000e+00  0.0000000000000000e+00  0.0000000000000000e+00  0.0000000000000000e+00  0.0000000000000000e+00  0.0000000000000000e+00  0.0000000000000000e+00  0.0000000000000000e+00  0.0000000000000000e+00  0.0000000000000000e+00  -1.0119507699384703e-11  -1.1792861628675411e-11  7.7494248165429588e-11  -1.8673916596453238e-11  -3.9248129931983583e-10  2.1145746033564050e-10  1.9311200827950679e-09  2.6568858675195762e-10  -8.0157288184043782e-09  -1.5994316865678606e-08  -1.4098251906742520e-08  -4.8592647012727868e-09  1.3150926637258757e-09  1.3323263046284030e-09  -1.2646227726810892e-10  -2.5536596787872117e-10  4.2783613398176750e-11  3.9304321122766304e-11  -1.5283917877892937e-11  -2.7923237950150329e-12  3.3276140185058556e-12  -6.5277644178465960e-13  -2.8459074793270872e-13  2.1258522472038468e-13  -4.6670161954248807e-14  -1.0603064641593889e-14  1.1711838324488178e-14  -4.2011966282645418e-15  4.9309302252058093e-16  3.1566844702633734e-16  -2.3527435028702816e-16  8.8169904565618035e-17  -1.9498427731667998e-17  1.6143690477517748e-19  2.2861730300904085e-18  -1.3752203759585543e-18  5.5953494825270885e-19  -1.8548043150019275e-19  5.8796084495159111e-20  0.0000000000000000e+00  0.0000000000000000e+00  -1.1792861628675403e-11  8.4809538679864819e-11  -7.5446437604038833e-11  -3.7152897941813754e-10  7.8020491922566129e-10  1.4581867427614939e-09  -4.2010404177037466e-09  -8.2062773672081533e-09  1.2236145368810958e-08  5.2443968791447051e-08  6.8465130793642058e-08  4.0098098919374475e-08  3.2432084857223865e-09  -7.7731490884080322e-09  -1.7668538434340760e-09  1.4431458383646877e-09  2.4415656415786387e-10  -2.8908778387669347e-10  1.3198000434387132e-11  4.5318879583430575e-11  -1.5272676826830130e-11  -2.2087540415349258e-12  3.1857506715550442e-12  -9.2149729350786500e-13  -8.5846117995778218e-14  1.7296943033948073e-13  -6.8980017901873715e-14  9.5943002507124681e-15  4.5660687151894409e-15  -3.6778536157586560e-15  1.3855429994181611e-15  -2.9582088672319884e-16  -5.5239611419443632e-18  3.9007218799212902e-17  -2.2129109031930311e-17  8.6512267838669506e-18  -2.7356780184774031e-18  7.4313357785148754e-19  -1.8548043150019292e-19  0.0000000000000000e+00  0.0000000000000000e+00  7.7494248165429601e-11  -7.5446437604038897e-11  -3.3967062850992159e-10  1.0059540062156742e-09  5.5498569176995227e-10  -5.9678674801842573e-09  3.7030658639639557e-10  2.9812173932608780e-08  1.1321718958164896e-08  -1.2126826936095424e-07  -2.5807688942299675e-07  -2.2876820218106025e-07  -7.4240559704949375e-08  2.4393330462601120e-08  1.9870628690098941e-08  -3.5309190507157318e-09  -3.5558774245892266e-09  1.0493924792345607e-09  4.2076379992609531e-10  -2.7693573220350687e-10  1.1281025246534020e-11  4.0273904112487973e-11  -1.6518214754277500e-11  4.9104746400320746e-13  2.2347230591864669e-12  -1.0835462656281416e-12  1.9960345045899335e-13  5.0698125408596114e-14  -5.3049446064686390e-14  2.1497565306300808e-14  -4.9165289979743263e-15  5.6521911755432074e-17  5.6672864807365402e-16  -3.3606731822237847e-16  1.3342643162721880e-16  -4.2601208362539099e-17  1.1544298367882079e-17  -2.7356780184773907e-18  5.5953494825270692e-19  0.0000000000000000e+00  0.0000000000000000e+00  -1.8673916596453199e-11  -3.7152897941813765e-10  1.0059540062156749e-09  1.8879002469428525e-10  -6.1125909057159795e-09  6.9604870224311593e-09  2.6679496997443823e-08  -4.8657543192707084e-08  -1.3443282288496902e-07  1.4616054709940737e-07  7.7663179805698811e-07  1.0467779508879389e-06  5.9967442389546113e-07  2.7667648632074121e-08  -1.1908922238979249e-07  -1.6841243618296739e-08  2.2486924552804026e-08  6.7675609100510830e-10  -4.0014165790647024e-09  8.3330230498027085e-10  4.1030265120683654e-10  -2.6797585599253632e-10  3.5955529213963631e-11  2.5791183819563782e-11  -1.6459570137290599e-11  3.8687697764906321e-12  4.3536551865870527e-13  -7.4807378686968719e-13  3.3287520815919233e-13  -8.2279548896431603e-14  3.4745078578549138e-15  8.1452971502921307e-15  -5.1261427356196183e-15  2.0763173006440804e-15  -6.6875926250693762e-16  1.8189321082227875e-16  -4.2601208362539296e-17  8.6512267838669599e-18  -1.3752203759585593e-18  0.0000000000000000e+00  0.0000000000000000e+00  -3.9248129931983619e-10  7.8020491922566139e-10  5.5498569176995154e-10  -6.1125909057159812e-09  9.0911512624114741e-09  2.0111550755498418e-08  -7.6822437955079367e-08  -4.2705942231381588e-08  4.1444153911367968e-07  2.8534842800421210e-07  -1.6879150270073547e-06  -3.9012565188580938e-06  -3.4770972258970749e-06  -1.0386538515596072e-06  4.2257961008025354e-07  2.6475436609232240e-07  -7.6484732474602652e-08  -4.0770114708755788e-08  2.0012287975746426e-08  2.1544601181332400e-09  -3.8583920507350614e-09  9.4921454602343826e-10  2.3605698178776209e-10  -2.3835521491664230e-10  7.0493331903234348e-11  9.2515347449422988e-13  -1.0214474603836300e-11  5.1064592002805398e-12  -1.3690279857483291e-12  9.6963445208907965e-14  1.1543388057455926e-13  -7.8053160231905017e-14  3.2326135440163441e-14  -1.0505572552761450e-14  2.8636550850216509e-15  -6.6875926250693624e-16  1.3342643162721902e-16  -2.2129109031930258e-17  2.2861730300904050e-18  0.0000000000000000e+00  0.0000000000000000e+00  2.1145746033564135e-10  1.4581867427614950e-09  -5.9678674801842573e-09  6.9604870224311626e-09  2.0111550755498412e-08  -8.2984617859230419e-08  2.2472655285648707e-08  4.3743180527966106e-07  -4.6992069288957590e-07  -2.1368649770813475e-06  1.5543530238385375e-06  1.1430254989075213e-05  1.6006398030907556e-05  8.9168798497484182e-06  4.3558161562573476e-08  -1.7899072324175574e-06  -8.4373507617923780e-08  3.2769306809397153e-07  -3.6714280830755241e-08  -4.6200547062144037e-08  1.9153069023277089e-08  7.9302209703692393e-10  -3.2151255098044536e-09  1.2175684574506136e-09  -8.0634270236450903e-11  -1.3272219030594525e-10  7.7314957206540757e-11  -2.2624662538987506e-11  2.2206559236029219e-12  1.6022798957154497e-12  -1.1847055472335990e-12  5.0327533154690723e-13  -1.6519439260916098e-13  4.5131644041470992e-14  -1.0505572552761448e-14  2.0763173006440776e-15  -3.3606731822237930e-16  3.9007218799212902e-17  1.6143690477515759e-19  0.0000000000000000e+00  0.0000000000000000e+00  1.9311200827950691e-09  -4.2010404177037541e-09  3.7030658639640068e-10  2.6679496997443830e-08  -7.6822437955079367e-08  2.2472655285648697e-08  4.1616135031625427e-07  -8.3061671789182544e-07  -1.3191126335611301e-06  5.4446017209772471e-06  6.0532211150916722e-06  -2.3046924150971917e-05  -5.9159438779501577e-05  -5.3037180298718569e-05  -1.4209105835489470e-05  7.2318449026326561e-06  3.2995422473256769e-06  -1.4564065494822909e-06  -3.5928032519997192e-07  3.2150376409960383e-07  -3.4179041993375664e-08  -3.8429632301647831e-08  1.9901296831756264e-08  -2.7561524630107704e-09  -1.5860165071562561e-09  1.1495935496288243e-09  -3.7101693560205397e-10  4.6388223580774574e-11  2.1578022308577188e-11  -1.7907886781900523e-11  7.8347987954823852e-12  -2.6006797623589948e-12  7.1229496691901898e-13  -1.6519439260916124e-13  3.2326135440163504e-14  -5.1261427356196254e-15  5.6672864807365717e-16  -5.5239611419447314e-18  -1.9498427731667930e-17  0.0000000000000000e+00  0.0000000000000000e+00  2.6568858675195550e-10  -8.2062773672081550e-09  2.9812173932608813e-08  -4.8657543192707150e-08  -4.2705942231381615e-08  4.3743180527966106e-07  -8.3061671789182554e-07  -8.9612336462025981e-07  6.3816952155202310e-06  -2.5744492278301425e-06  -3.2873152287811622e-05  1.2544639795869034e-05  1.6775020597319099e-04  2.4618318577369842e-04  1.3230157001904740e-04  -5.9007511375413892e-06  -2.6260233666295341e-05  1.5488024349244454e-06  4.3253268880597387e-06  -1.1879960050610530e-06  -3.5206251372177070e-07  3.0371653757512453e-07  -6.5488579412418469e-08  -1.5996153711110148e-08  1.6652184364618109e-08  -6.0271888792240543e-09  9.1855792342771188e-10  2.7724682196197775e-10  -2.6923863426650934e-10  1.2194867830820654e-10  -4.0999254747113920e-11  1.1260502509381184e-11  -2.6006797623589847e-12  5.0327533154690552e-13  -7.8053160231904689e-14  8.1452971502920739e-15  5.6521911755438928e-17  -2.9582088672319839e-16  8.8169904565617789e-17  0.0000000000000000e+00  0.0000000000000000e+00  -8.0157288184043782e-09  1.2236145368810969e-08  1.1321718958164886e-08  -1.3443282288496910e-07  4.1444153911368021e-07  -4.6992069288957606e-07  -1.3191126335611309e-06  6.3816952155202336e-06  -5.7009786442393641e-06  -2.8049414046948608e-05  6.4698123224196481e-05  1.1743920142032303e-04  -3.0521766769189867e-04  -9.0110453393018090e-04  -8.1301441806597196e-04  -1.8731557163050741e-04  1.2214282146111167e-04  3.6023082579449162e-05  -2.5031029323242600e-05  -7.3597588342153092e-07  4.1777873888080631e-06  -1.3284301930712590e-06  -9.3687577014504896e-08  2.3170365773482148e-07  -9.6712613037052000e-08  1.7557097122053984e-08  3.2833024770707433e-09  -4.0186412206868334e-09  1.8975120819012549e-09  -6.4738481821535117e-10  1.7836074263574646e-10  -4.0999254747114095e-11  7.8347987954823981e-12  -1.1847055472336037e-12  1.1543388057456037e-13  3.4745078578546791e-15  -4.9165289979742995e-15  1.3855429994181526e-15  -2.3527435028702717e-16  0.0000000000000000e+00  0.0000000000000000e+00  -1.5994316865678596e-08  5.2443968791447025e-08  -1.2126826936095427e-07  1.4616054709940753e-07  2.8534842800421231e-07  -2.1368649770813505e-06  5.4446017209772531e-06  -2.5744492278301446e-06  -2.8049414046948625e-05  7.7821487200336117e-05  3.5063861675915969e-05  -4.8221114676288643e-04  3.0257094871133477e-06  2.4498902210166157e-03  3.8165034602780346e-03  1.9548916757957412e-03  -2.0630601985208220e-04  -3.6927033591210883e-04  6.8290417379202677e-05  4.6975331588928864e-05  -2.4007225321470262e-05  1.2509202798900029e-06  3.0124807649369439e-06  -1.5251062469287973e-06  3.2701970704603234e-07  3.2732678618368015e-08  -5.9379512555376246e-08  2.9508201488215097e-08  -1.0241748635898882e-08  2.8316821465978931e-09  -6.4738481821535013e-10  1.2194867830820677e-10  -1.7907886781900491e-11  1.6022798957154474e-12  9.6963445208908217e-14  -8.2279548896431515e-14  2.1497565306300862e-14  -3.6778536157586520e-15  3.1566844702633739e-16  0.0000000000000000e+00  0.0000000000000000e+00  -1.4098251906742496e-08  6.8465130793641979e-08  -2.5807688942299648e-07  7.7663179805698747e-07  -1.6879150270073554e-06  1.5543530238385381e-06  6.0532211150916798e-06  -3.2873152287811656e-05  6.4698123224196522e-05  3.5063861675916037e-05  -4.8417455142201425e-04  6.1260868571789973e-04  2.1413407604124520e-03  -3.8256446454465096e-03  -1.3808107075606580e-02  -1.2546047234017001e-02  -2.3014522335390599e-03  2.0257858431537356e-03  2.7171211075849869e-04  -3.8061493173888319e-04  6.4497684096633077e-05  3.4265523197187341e-05  -2.3417497495890156e-05  5.9638578204023098e-06  1.7832771660224263e-07  -8.6462855405365835e-07  4.5843694446035949e-07  -1.6239677351584451e-07  4.5082080065024812e-08  -1.0241748635898885e-08  1.8975120819012533e-09  -2.6923863426651022e-10  2.1578022308577262e-11  2.2206559236028984e-12  -1.3690279857483234e-12  3.3287520815919066e-13  -5.3049446064686257e-14  4.5660687151893951e-15  4.9309302252058655e-16  0.0000000000000000e+00  0.0000000000000000e+00  -4.8592647012727785e-09  4.0098098919374416e-08  -2.2876820218106006e-07  1.0467779508879378e-06  -3.9012565188580912e-06  1.1430254989075215e-05  -2.3046924150971924e-05  1.2544639795869030e-05  1.1743920142032315e-04  -4.8221114676288686e-04  6.1260868571789973e-04  1.6288420255583941e-03  -6.5039121934218277e-03  -3.2002895366079185e-03  3.5454570182507389e-02  5.9843324771273500e-02  2.8647308188120276e-02  -5.2531225606194587e-03  -4.7689343115160307e-03  1.6702010113104108e-03  2.6928841124092837e-04  -3.4366498231675266e-04  1.0659608252771962e-04  -3.2786415859807881e-06  -1.2309660541967537e-05  7.1106498428387332e-06  -2.5822357232817478e-06  7.2021456778865990e-07  -1.6239677351584478e-07  2.9508201488215169e-08  -4.0186412206868425e-09  2.7724682196198028e-10  4.6388223580774199e-11  -2.2624662538987454e-11  5.1064592002805317e-12  -7.4807378686968537e-13  5.0698125408596114e-14  9.5943002507124570e-15  -4.2011966282645387e-15  0.0000000000000000e+00  0.0000000000000000e+00  1.3150926637258776e-09  3.2432084857223696e-09  -7.4240559704949217e-08  5.9967442389546028e-07  -3.4770972258970715e-06  1.6006398030907542e-05  -5.9159438779501557e-05  1.6775020597319096e-04  -3.0521766769189872e-04  3.0257094871131546e-06  2.1413407604124542e-03  -6.5039121934218303e-03  1.9447901599502731e-03  3.6752091030989864e-02  -4.2576360039762007e-02  -2.1340713594721647e-01  -1.9543727485829929e-01  -2.3921409742530035e-02  3.2527294826619021e-02  -1.1795106831020614e-03  -4.6153639303156413e-03  1.8601701656529922e-03  -1.6347856945837146e-04  -1.6880904813554608e-04  1.0998478928160256e-04  -4.1204006800971862e-05  1.1556210916891290e-05  -2.5822357232817377e-06  4.5843694446035822e-07  -5.9379512555375995e-08  3.2833024770707064e-09  9.1855792342771654e-10  -3.7101693560205294e-10  7.7314957206540473e-11  -1.0214474603836232e-11  4.3536551865869487e-13  1.9960345045899504e-13  -6.8980017901873715e-14  1.1711838324488171e-14  0.0000000000000000e+00  0.0000000000000000e+00  1.3323263046284024e-09  -7.7731490884080322e-09  2.4393330462601130e-08  2.7667648632073906e-08  -1.0386538515596058e-06  8.9168798497484046e-06  -5.3037180298718501e-05  2.4618318577369826e-04  -9.0110453393018068e-04  2.4498902210166162e-03  -3.8256446454465109e-03  -3.2002895366079272e-03  3.6752091030989885e-02  -7.2212424749336118e-02  -1.0585592927545311e-01  5.0341232486884879e-01  9.5511234751466068e-01  4.1219462064887558e-01  -1.1895885307871432e-01  -4.9450075196902567e-02  3.1259444682710733e-02  -4.6672845569861489e-03  -2.1574315471326396e-03  1.6928439440768348e-03  -6.6047408458283898e-04  1.8648462724205677e-04  -4.1204006800972045e-05  7.1106498428387468e-06  -8.6462855405366280e-07  3.2732678618368875e-08  1.7557097122053776e-08  -6.0271888792240352e-09  1.1495935496288170e-09  -1.3272219030594445e-10  9.2515347449414769e-13  3.8687697764906289e-12  -1.0835462656281431e-12  1.7296943033948013e-13  -1.0603064641593814e-14  0.0000000000000000e+00  0.0000000000000000e+00  -1.2646227726810941e-10  -1.7668538434340743e-09  1.9870628690098941e-08  -1.1908922238979252e-07  4.2257961008025423e-07  4.3558161562569519e-08  -1.4209105835489445e-05  1.3230157001904730e-04  -8.1301441806597131e-04  3.8165034602780337e-03  -1.3808107075606584e-02  3.5454570182507403e-02  -4.2576360039761937e-02  -1.0585592927545324e-01  5.7405669550024463e-01  -3.2271363237781248e-01  -3.3420486485743433e+00  -3.0886578222650272e+00  -1.1906083806835431e-01  4.8402491844033069e-01  -1.1318445400196385e-01  -2.3368628419504343e-02  2.5813397183795918e-02  -1.0651902758586618e-02  3.0327325469926584e-03  -6.6047408458283811e-04  1.0998478928160275e-04  -1.2309660541967511e-05  1.7832771660224067e-07  3.2701970704603250e-07  -9.6712613037051868e-08  1.6652184364618135e-08  -1.5860165071562523e-09  -8.0634270236450929e-11  7.0493331903234284e-11  -1.6459570137290560e-11  2.2347230591864685e-12  -8.5846117995777701e-14  -4.6670161954248820e-14  0.0000000000000000e+00  0.0000000000000000e+00  -2.5536596787872143e-10  1.4431458383646898e-09  -3.5309190507157467e-09  -1.6841243618296683e-08  2.6475436609232219e-07  -1.7899072324175574e-06  7.2318449026326578e-06  -5.9007511375414137e-06  -1.8731557163050730e-04  1.9548916757957404e-03  -1.2546047234017001e-02  5.9843324771273500e-02  -2.1340713594721647e-01  5.0341232486884846e-01  -3.2271363237781137e-01  -2.6095896021048266e+00  6.8088075128284382e+00  1.5727953450876864e+01  5.6488060974107599e+00  -2.5210002019626776e+00  -1.2465894562310871e-01  3.8589984828090612e-01  -1.7328910045392362e-01  4.9872345075927769e-02  -1.0651902758586617e-02  1.6928439440768331e-03  -1.6880904813554662e-04  -3.2786415859806912e-06  5.9638578204022861e-06  -1.5251062469287911e-06  2.3170365773481998e-07  -1.5996153711109969e-08  -2.7561524630107981e-09  1.2175684574506171e-09  -2.3835521491664261e-10  2.5791183819563785e-11  4.9104746400320726e-13  -9.2149729350786339e-13  2.1258522472038458e-13  0.0000000000000000e+00  0.0000000000000000e+00  4.2783613398176841e-11  2.4415656415786377e-10  -3.5558774245892291e-09  2.2486924552804046e-08  -7.6484732474602758e-08  -8.4373507617923674e-08  3.2995422473256790e-06  -2.6260233666295354e-05  1.2214282146111178e-04  -2.0630601985208245e-04  -2.3014522335390595e-03  2.8647308188120287e-02  -1.9543727485829937e-01  9.5511234751466079e-01  -3.3420486485743441e+00  6.8088075128284364e+00  2.8136095413071143e+00  -5.3559415345391855e+01  -5.0048280700097088e+01  4.3695411466848721e+00  5.4812002536744862e+00  -2.8570401538379295e+00  8.3448350600724985e-01  -1.7328910045392390e-01  2.5813397183795973e-02  -2.1574315471326495e-03  -1.6347856945836975e-04  1.0659608252771910e-04  -2.3417497495890105e-05  3.0124807649369362e-06  -9.3687577014504552e-08  -6.5488579412418575e-08  1.9901296831756221e-08  -3.2151255098044478e-09  2.3605698178776105e-10  3.5955529213963774e-11  -1.6518214754277564e-11  3.1857506715550442e-12  -2.8459074793270922e-13  0.0000000000000000e+00  0.0000000000000000e+00  3.9304321122766323e-11  -2.8908778387669373e-10  1.0493924792345613e-09  6.7675609100510985e-10  -4.0770114708755848e-08  3.2769306809397201e-07  -1.4564065494822939e-06  1.5488024349244558e-06  3.6023082579449156e-05  -3.6927033591210927e-04  2.0257858431537387e-03  -5.2531225606194708e-03  -2.3921409742529997e-02  4.1219462064887552e-01  -3.0886578222650285e+00  1.5727953450876873e+01  -5.3559415345391869e+01  7.6086478404478243e+01  2.7773244652530127e+02  6.3401887362432049e+01  -4.8214790427747552e+01  1.4398194578582851e+01  -2.8570401538379171e+00  3.8589984828090446e-01  -2.3368628419504153e-02  -4.6672845569861532e-03  1.8601701656529948e-03  -3.4366498231675147e-04  3.4265523197187165e-05  1.2509202798900357e-06  -1.3284301930712613e-06  3.0371653757512569e-07  -3.8429632301647831e-08  7.9302209703693292e-10  9.4921454602343537e-10  -2.6797585599253534e-10  4.0273904112487941e-11  -2.2087540415349056e-12  -6.5277644178466111e-13  0.0000000000000000e+00  0.0000000000000000e+00  -1.5283917877892943e-11  1.3198000434387092e-11  4.2076379992609625e-10  -4.0014165790647090e-09  2.0012287975746459e-08  -3.6714280830755314e-08  -3.5928032519997224e-07  4.3253268880597455e-06  -2.5031029323242644e-05  6.8290417379202785e-05  2.7171211075849880e-04  -4.7689343115160385e-03  3.2527294826619056e-02  -1.1895885307871448e-01  -1.1906083806835337e-01  5.6488060974107626e+00  -5.0048280700097109e+01  2.7773244652530144e+02  -9.0335853786573932e+02  -8.5666225817449470e+02  2.6612053914436041e+02  -4.8214790427747758e+01  5.4812002536745039e+00  -1.2465894562311376e-01  -1.1318445400196289e-01  3.1259444682710524e-02  -4.6153639303156231e-03  2.6928841124092371e-04  6.4497684096633673e-05  -2.4007225321470336e-05  4.1777873888080648e-06  -3.5206251372177155e-07  -3.4179041993375631e-08  1.9153069023277096e-08  -3.858392050735063