<?xml version="1.0"?>
<VTKFile type="UnstructuredGrid"  version="0.1"  >
<UnstructuredGrid>
<Piece  NumberOfPoints="1681" NumberOfCells="3200">
<Points>
<DataArray  type="Float64"  NumberOfComponents="3"  format="ascii">-2 -2 0  -1.9 -2 0  -1.8 -2 0  -1.7 -2 0  -1.6 -2 0  -1.5 -2 0  -1.4 -2 0  -1.3 -2 0  -1.2 -2 0  -1.1 -2 0  -1 -2 0  -0.8999999999999999 -2 0  -0.8 -2 0  -0.7 -2 0  -0.6000000000000001 -2 0  -0.5 -2 0  -0.3999999999999999 -2 0  -0.3 -2 0  -0.2 -2 0  -0.1000000000000001 -2 0  0 -2 0  0.1000000000000001 -2 0  0.2000000000000002 -2 0  0.2999999999999998 -2 0  0.3999999999999999 -2 0  0.5 -2 0  0.6000000000000001 -2 0  0.7000000000000002 -2 0  0.7999999999999998 -2 0  0.8999999999999999 -2 0  1 -2 0  1.1 -2 0  1.2 -2 0  1.3 -2 0  1.4 -2 0  1.5 -2 0  1.6 -2 0  1.7 -2 0  1.8 -2 0  1.9 -2 0  2 -2 0  -2 -1.9 0  -1.9 -1.9 0  -1.8 -1.9 0  -1.7 -1.9 0  -1.6 -1.9 0  -1.5 -1.9 0  -1.4 -1.9 0  -1.3 -1.9 0  -1.2 -1.9 0  -1.1 -1.9 0  -1 -1.9 0  -0.8999999999999999 -1.9 0  -0.8 -1.9 0  -0.7 -1.9 0  -0.6000000000000001 -1.9 0  -0.5 -1.9 0  -0.3999999999999999 -1.9 0  -0.3 -1.9 0  -0.2 -1.9 0  -0.1000000000000001 -1.9 0  0 -1.9 0  0.1000000000000001 -1.9 0  0.2000000000000002 -1.9 0  0.2999999999999998 -1.9 0  0.3999999999999999 -1.9 0  0.5 -1.9 0  0.6000000000000001 -1.9 0  0.7000000000000002 -1.9 0  0.7999999999999998 -1.9 0  0.8999999999999999 -1.9 0  1 -1.9 0  1.1 -1.9 0  1.2 -1.9 0  1.3 -1.9 0  1.4 -1.9 0  1.5 -1.9 0  1.6 -1.9 0  1.7 -1.9 0  1.8 -1.9 0  1.9 -1.9 0  2 -1.9 0  -2 -1.8 0  -1.9 -1.8 0  -1.8 -1.8 0  -1.7 -1.8 0  -1.6 -1.8 0  -1.5 -1.8 0  -1.4 -1.8 0  -1.3 -1.8 0  -1.2 -1.8 0  -1.1 -1.8 0  -1 -1.8 0  -0.8999999999999999 -1.8 0  -0.8 -1.8 0  -0.7 -1.8 0  -0.6000000000000001 -1.8 0  -0.5 -1.8 0  -0.3999999999999999 -1.8 0  -0.3 -1.8 0  -0.2 -1.8 0  -0.1000000000000001 -1.8 0  0 -1.8 0  0.1000000000000001 -1.8 0  0.2000000000000002 -1.8 0  0.2999999999999998 -1.8 0  0.3999999999999999 -1.8 0  0.5 -1.8 0  0.6000000000000001 -1.8 0  0.7000000000000002 -1.8 0  0.7999999999999998 -1.8 0  0.8999999999999999 -1.8 0  1 -1.8 0  1.1 -1.8 0  1.2 -1.8 0  1.3 -1.8 0  1.4 -1.8 0  1.5 -1.8 0  1.6 -1.8 0  1.7 -1.8 0  1.8 -1.8 0  1.9 -1.8 0  2 -1.8 0  -2 -1.7 0  -1.9 -1.7 0  -1.8 -1.7 0  -1.7 -1.7 0  -1.6 -1.7 0  -1.5 -1.7 0  -1.4 -1.7 0  -1.3 -1.7 0  -1.2 -1.7 0  -1.1 -1.7 0  -1 -1.7 0  -0.8999999999999999 -1.7 0  -0.8 -1.7 0  -0.7 -1.7 0  -0.6000000000000001 -1.7 0  -0.5 -1.7 0  -0.3999999999999999 -1.7 0  -0.3 -1.7 0  -0.2 -1.7 0  -0.1000000000000001 -1.7 0  0 -1.7 0  0.1000000000000001 -1.7 0  0.2000000000000002 -1.7 0  0.2999999999999998 -1.7 0  0.3999999999999999 -1.7 0  0.5 -1.7 0  0.6000000000000001 -1.7 0  0.7000000000000002 -1.7 0  0.7999999999999998 -1.7 0  0.8999999999999999 -1.7 0  1 -1.7 0  1.1 -1.7 0  1.2 -1.7 0  1.3 -1.7 0  1.4 -1.7 0  1.5 -1.7 0  1.6 -1.7 0  1.7 -1.7 0  1.8 -1.7 0  1.9 -1.7 0  2 -1.7 0  -2 -1.6 0  -1.9 -1.6 0  -1.8 -1.6 0  -1.7 -1.6 0  -1.6 -1.6 0  -1.5 -1.6 0  -1.4 -1.6 0  -1.3 -1.6 0  -1.2 -1.6 0  -1.1 -1.6 0  -1 -1.6 0  -0.8999999999999999 -1.6 0  -0.8 -1.6 0  -0.7 -1.6 0  -0.6000000000000001 -1.6 0  -0.5 -1.6 0  -0.3999999999999999 -1.6 0  -0.3 -1.6 0  -0.2 -1.6 0  -0.1000000000000001 -1.6 0  0 -1.6 0  0.1000000000000001 -1.6 0  0.2000000000000002 -1.6 0  0.2999999999999998 -1.6 0  0.3999999999999999 -1.6 0  0.5 -1.6 0  0.6000000000000001 -1.6 0  0.7000000000000002 -1.6 0  0.7999999999999998 -1.6 0  0.8999999999999999 -1.6 0  1 -1.6 0  1.1 -1.6 0  1.2 -1.6 0  1.3 -1.6 0  1.4 -1.6 0  1.5 -1.6 0  1.6 -1.6 0  1.7 -1.6 0  1.8 -1.6 0  1.9 -1.6 0  2 -1.6 0  -2 -1.5 0  -1.9 -1.5 0  -1.8 -1.5 0  -1.7 -1.5 0  -1.6 -1.5 0  -1.5 -1.5 0  -1.4 -1.5 0  -1.3 -1.5 0  -1.2 -1.5 0  -1.1 -1.5 0  -1 -1.5 0  -0.8999999999999999 -1.5 0  -0.8 -1.5 0  -0.7 -1.5 0  -0.6000000000000001 -1.5 0  -0.5 -1.5 0  -0.3999999999999999 -1.5 0  -0.3 -1.5 0  -0.2 -1.5 0  -0.1000000000000001 -1.5 0  0 -1.5 0  0.1000000000000001 -1.5 0  0.2000000000000002 -1.5 0  0.2999999999999998 -1.5 0  0.3999999999999999 -1.5 0  0.5 -1.5 0  0.6000000000000001 -1.5 0  0.7000000000000002 -1.5 0  0.7999999999999998 -1.5 0  0.8999999999999999 -1.5 0  1 -1.5 0  1.1 -1.5 0  1.2 -1.5 0  1.3 -1.5 0  1.4 -1.5 0  1.5 -1.5 0  1.6 -1.5 0  1.7 -1.5 0  1.8 -1.5 0  1.9 -1.5 0  2 -1.5 0  -2 -1.4 0  -1.9 -1.4 0  -1.8 -1.4 0  -1.7 -1.4 0  -1.6 -1.4 0  -1.5 -1.4 0  -1.4 -1.4 0  -1.3 -1.4 0  -1.2 -1.4 0  -1.1 -1.4 0  -1 -1.4 0  -0.8999999999999999 -1.4 0  -0.8 -1.4 0  -0.7 -1.4 0  -0.6000000000000001 -1.4 0  -0.5 -1.4 0  -0.3999999999999999 -1.4 0  -0.3 -1.4 0  -0.2 -1.4 0  -0.1000000000000001 -1.4 0  0 -1.4 0  0.1000000000000001 -1.4 0  0.2000000000000002 -1.4 0  0.2999999999999998 -1.4 0  0.3999999999999999 -1.4 0  0.5 -1.4 0  0.6000000000000001 -1.4 0  0.7000000000000002 -1.4 0  0.7999999999999998 -1.4 0  0.8999999999999999 -1.4 0  1 -1.4 0  1.1 -1.4 0  1.2 -1.4 0  1.3 -1.4 0  1.4 -1.4 0  1.5 -1.4 0  1.6 -1.4 0  1.7 -1.4 0  1.8 -1.4 0  1.9 -1.4 0  2 -1.4 0  -2 -1.3 0  -1.9 -1.3 0  -1.8 -1.3 0  -1.7 -1.3 0  -1.6 -1.3 0  -1.5 -1.3 0  -1.4 -1.3 0  -1.3 -1.3 0  -1.2 -1.3 0  -1.1 -1.3 0  -1 -1.3 0  -0.8999999999999999 -1.3 0  -0.8 -1.3 0  -0.7 -1.3 0  -0.6000000000000001 -1.3 0  -0.5 -1.3 0  -0.3999999999999999 -1.3 0  -0.3 -1.3 0  -0.2 -1.3 0  -0.1000000000000001 -1.3 0  0 -1.3 0  0.1000000000000001 -1.3 0  0.2000000000000002 -1.3 0  0.2999999999999998 -1.3 0  0.3999999999999999 -1.3 0  0.5 -1.3 0  0.6000000000000001 -1.3 0  0.7000000000000002 -1.3 0  0.7999999999999998 -1.3 0  0.8999999999999999 -1.3 0  1 -1.3 0  1.1 -1.3 0  1.2 -1.3 0  1.3 -1.3 0  1.4 -1.3 0  1.5 -1.3 0  1.6 -1.3 0  1.7 -1.3 0  1.8 -1.3 0  1.9 -1.3 0  2 -1.3 0  -2 -1.2 0  -1.9 -1.2 0  -1.8 -1.2 0  -1.7 -1.2 0  -1.6 -1.2 0  -1.5 -1.2 0  -1.4 -1.2 0  -1.3 -1.2 0  -1.2 -1.2 0  -1.1 -1.2 0  -1 -1.2 0  -0.8999999999999999 -1.2 0  -0.8 -1.2 0  -0.7 -1.2 0  -0.6000000000000001 -1.2 0  -0.5 -1.2 0  -0.3999999999999999 -1.2 0  -0.3 -1.2 0  -0.2 -1.2 0  -0.1000000000000001 -1.2 0  0 -1.2 0  0.1000000000000001 -1.2 0  0.2000000000000002 -1.2 0  0.2999999999999998 -1.2 0  0.3999999999999999 -1.2 0  0.5 -1.2 0  0.6000000000000001 -1.2 0  0.7000000000000002 -1.2 0  0.7999999999999998 -1.2 0  0.8999999999999999 -1.2 0  1 -1.2 0  1.1 -1.2 0  1.2 -1.2 0  1.3 -1.2 0  1.4 -1.2 0  1.5 -1.2 0  1.6 -1.2 0  1.7 -1.2 0  1.8 -1.2 0  1.9 -1.2 0  2 -1.2 0  -2 -1.1 0  -1.9 -1.1 0  -1.8 -1.1 0  -1.7 -1.1 0  -1.6 -1.1 0  -1.5 -1.1 0  -1.4 -1.1 0  -1.3 -1.1 0  -1.2 -1.1 0  -1.1 -1.1 0  -1 -1.1 0  -0.8999999999999999 -1.1 0  -0.8 -1.1 0  -0.7 -1.1 0  -0.6000000000000001 -1.1 0  -0.5 -1.1 0  -0.3999999999999999 -1.1 0  -0.3 -1.1 0  -0.2 -1.1 0  -0.1000000000000001 -1.1 0  0 -1.1 0  0.1000000000000001 -1.1 0  0.2000000000000002 -1.1 0  0.2999999999999998 -1.1 0  0.3999999999999999 -1.1 0  0.5 -1.1 0  0.6000000000000001 -1.1 0  0.7000000000000002 -1.1 0  0.7999999999999998 -1.1 0  0.8999999999999999 -1.1 0  1 -1.1 0  1.1 -1.1 0  1.2 -1.1 0  1.3 -1.1 0  1.4 -1.1 0  1.5 -1.1 0  1.6 -1.1 0  1.7 -1.1 0  1.8 -1.1 0  1.9 -1.1 0  2 -1.1 0  -2 -1 0  -1.9 -1 0  -1.8 -1 0  -1.7 -1 0  -1.6 -1 0  -1.5 -1 0  -1.4 -1 0  -1.3 -1 0  -1.2 -1 0  -1.1 -1 0  -1 -1 0  -0.8999999999999999 -1 0  -0.8 -1 0  -0.7 -1 0  -0.6000000000000001 -1 0  -0.5 -1 0  -0.3999999999999999 -1 0  -0.3 -1 0  -0.2 -1 0  -0.1000000000000001 -1 0  0 -1 0  0.1000000000000001 -1 0  0.2000000000000002 -1 0  0.2999999999999998 -1 0  0.3999999999999999 -1 0  0.5 -1 0  0.6000000000000001 -1 0  0.7000000000000002 -1 0  0.7999999999999998 -1 0  0.8999999999999999 -1 0  1 -1 0  1.1 -1 0  1.2 -1 0  1.3 -1 0  1.4 -1 0  1.5 -1 0  1.6 -1 0  1.7 -1 0  1.8 -1 0  1.9 -1 0  2 -1 0  -2 -0.8999999999999999 0  -1.9 -0.8999999999999999 0  -1.8 -0.8999999999999999 0  -1.7 -0.8999999999999999 0  -1.6 -0.8999999999999999 0  -1.5 -0.8999999999999999 0  -1.4 -0.8999999999999999 0  -1.3 -0.8999999999999999 0  -1.2 -0.8999999999999999 0  -1.1 -0.8999999999999999 0  -1 -0.8999999999999999 0  -0.8999999999999999 -0.8999999999999999 0  -0.8 -0.8999999999999999 0  -0.7 -0.8999999999999999 0  -0.6000000000000001 -0.8999999999999999 0  -0.5 -0.8999999999999999 0  -0.3999999999999999 -0.8999999999999999 0  -0.3 -0.8999999999999999 0  -0.2 -0.8999999999999999 0  -0.1000000000000001 -0.8999999999999999 0  0 -0.8999999999999999 0  0.1000000000000001 -0.8999999999999999 0  0.2000000000000002 -0.8999999999999999 0  0.2999999999999998 -0.8999999999999999 0  0.3999999999999999 -0.8999999999999999 0  0.5 -0.8999999999999999 0  0.6000000000000001 -0.8999999999999999 0  0.7000000000000002 -0.8999999999999999 0  0.7999999999999998 -0.8999999999999999 0  0.8999999999999999 -0.8999999999999999 0  1 -0.8999999999999999 0  1.1 -0.8999999999999999 0  1.2 -0.8999999999999999 0  1.3 -0.8999999999999999 0  1.4 -0.8999999999999999 0  1.5 -0.8999999999999999 0  1.6 -0.8999999999999999 0  1.7 -0.8999999999999999 0  1.8 -0.8999999999999999 0  1.9 -0.8999999999999999 0  2 -0.8999999999999999 0  -2 -0.8 0  -1.9 -0.8 0  -1.8 -0.8 0  -1.7 -0.8 0  -1.6 -0.8 0  -1.5 -0.8 0  -1.4 -0.8 0  -1.3 -0.8 0  -1.2 -0.8 0  -1.1 -0.8 0  -1 -0.8 0  -0.8999999999999999 -0.8 0  -0.8 -0.8 0  -0.7 -0.8 0  -0.6000000000000001 -0.8 0  -0.5 -0.8 0  -0.3999999999999999 -0.8 0  -0.3 -0.8 0  -0.2 -0.8 0  -0.1000000000000001 -0.8 0  0 -0.8 0  0.1000000000000001 -0.8 0  0.2000000000000002 -0.8 0  0.2999999999999998 -0.8 0  0.3999999999999999 -0.8 0  0.5 -0.8 0  0.6000000000000001 -0.8 0  0.7000000000000002 -0.8 0  0.7999999999999998 -0.8 0  0.8999999999999999 -0.8 0  1 -0.8 0  1.1 -0.8 0  1.2 -0.8 0  1.3 -0.8 0  1.4 -0.8 0  1.5 -0.8 0  1.6 -0.8 0  1.7 -0.8 0  1.8 -0.8 0  1.9 -0.8 0  2 -0.8 0  -2 -0.7 0  -1.9 -0.7 0  -1.8 -0.7 0  -1.7 -0.7 0  -1.6 -0.7 0  -1.5 -0.7 0  -1.4 -0.7 0  -1.3 -0.7 0  -1.2 -0.7 0  -1.1 -0.7 0  -1 -0.7 0  -0.8999999999999999 -0.7 0  -0.8 -0.7 0  -0.7 -0.7 0  -0.6000000000000001 -0.7 0  -0.5 -0.7 0  -0.3999999999999999 -0.7 0  -0.3 -0.7 0  -0.2 -0.7 0  -0.1000000000000001 -0.7 0  0 -0.7 0  0.1000000000000001 -0.7 0  0.2000000000000002 -0.7 0  0.2999999999999998 -0.7 0  0.3999999999999999 -0.7 0  0.5 -0.7 0  0.600000000000000
[...]
<PointData  Scalars="f_1726"> 
<DataArray  type="Float64"  Name="f_1726"  format="ascii">0.0000000000000000e+00  0.0000000000000000e+00  0.0000000000000000e+00  0.0000000000000000e+00  0.0000000000000000e+00  0.0000000000000000e+00  0.0000000000000000e+00  0.0000000000000000e+00  0.0000000000000000e+00  0.0000000000000000e+00  0.0000000000000000e+00  0.0000000000000000e+00  0.0000000000000000e+00  0.0000000000000000e+00  0.0000000000000000e+00  0.0000000000000000e+00  0.0000000000000000e+00  0.0000000000000000e+00  0.0000000000000000e+00  0.0000000000000000e+00  0.0000000000000000e+00  0.0000000000000000e+00  0.0000000000000000e+00  0.0000000000000000e+00  0.0000000000000000e+00  0.0000000000000000e+00  0.0000000000000000e+00  0.0000000000000000e+00  0.0000000000000000e+00  0.0000000000000000e+00  0.0000000000000000e+00  0.0000000000000000e+00  0.0000000000000000e+00  0.0000000000000000e+00  0.0000000000000000e+00  0.0000000000000000e+00  0.0000000000000000e+00  0.0000000000000000e+00  0.0000000000000000e+00  0.0000000000000000e+00  0.0000000000000000e+00  0.0000000000000000e+00  -3.2655734414538753e-11  -3.8055661280523084e-11  2.5007457496163558e-10  -6.0260882146480632e-11  -1.2665403746904555e-09  6.8237496030695242e-10  6.2317403592837069e-09  8.5737925042278717e-10  -2.5866822696196373e-08  -5.1613791819076001e-08  -4.5495174632244358e-08  -1.5680887079551866e-08  4.2438148211253180e-09  4.2994279217846188e-09  -4.0809480684284931e-10  -8.2406807458293702e-10  1.3806307163639115e-10  1.2683536690296152e-10  -4.9321328453995838e-11  -9.0108518080333571e-12  1.0738237753307957e-11  -2.1065149361251641e-12  -9.1837667971640237e-13  6.8601426523407170e-13  -1.5060499573058572e-13  -3.4216176636451368e-14  3.7794198412809874e-14  -1.3557296006030465e-14  1.5912152313568931e-15  1.0186646698009576e-15  -7.5923225968724821e-16  2.8452500579896002e-16  -6.2921586348033845e-17  5.2095821690653249e-19  7.3774991347507053e-18  -4.4378474420742144e-18  1.8056238711003859e-18  -5.9854687501573164e-19  1.8973544730890832e-19  0.0000000000000000e+00  0.0000000000000000e+00  -3.8055661280523052e-11  2.7368107750119235e-10  -2.4346627347003903e-10  -1.1989270663750810e-09  2.5177276788572452e-09  4.7055805887984115e-09  -1.3556791913268470e-08  -2.6481724427353725e-08  3.9486141548750939e-08  1.6923711779002710e-07  2.2093753908500673e-07  1.2939689436854860e-07  1.0465860406150823e-08  -2.5084015916219035e-08  -5.7016518564434212e-09  4.6570434668427197e-09  7.8789523676040982e-10  -9.3288865162273548e-10  4.2590055741003823e-11  1.4624439642760069e-10  -4.9285053489941099e-11  -7.1276674231681671e-12  1.0280443568175321e-11  -2.9736793305013088e-12  -2.7702612746267735e-13  5.5817377157028996e-13  -2.2259908400985581e-13  3.0960885666370881e-14  1.4734741225685017e-14  -1.1868463808676031e-14  4.4711586327143190e-15  -9.5461642977884361e-16  -1.7825867949933565e-17  1.2587661526601260e-16  -7.1410816498615492e-17  2.7917579847395274e-17  -8.8280554221547462e-18  2.3980981559329917e-18  -5.9854687501573231e-19  0.0000000000000000e+00  0.0000000000000000e+00  2.5007457496163552e-10  -2.4346627347003918e-10  -1.0961199064766657e-09  3.2462218356944115e-09  1.7909433830867719e-09  -1.9258357347354898e-08  1.1949823940595812e-09  9.6204130001551593e-08  3.6535280015287918e-08  -3.9133370069008973e-07  -8.3281624065962218e-07  -7.3823686634187233e-07  -2.3957489559091336e-07  7.8717477641843715e-08  6.4122681896199377e-08  -1.1394304761131728e-08  -1.1474845638498833e-08  3.3863981447024173e-09  1.3578082363111565e-09  -8.9367388112007016e-10  3.6403961073810054e-11  1.2996421916986888e-10  -5.3304414606137430e-11  1.5846141972298301e-12  7.2114696563031530e-12  -3.4966126937547899e-12  6.4412197312827396e-13  1.6360326686235506e-13  -1.7119099792098894e-13  6.9372819711817293e-14  -1.5865679435076689e-14  1.8239667320966910e-16  1.8288379994739409e-15  -1.0844919946000501e-15  4.3056819012677887e-16  -1.3747444908906919e-16  3.7253545597546486e-17  -8.8280554221547092e-18  1.8056238711003805e-18  0.0000000000000000e+00  0.0000000000000000e+00  -6.0260882146480864e-11  -1.1989270663750804e-09  3.2462218356944119e-09  6.0922695942072932e-10  -1.9725381029545841e-08  2.2461548758362631e-08  8.6094955816376734e-08  -1.5701829130102879e-07  -4.3381582297676434e-07  4.7166128528684652e-07  2.5061971875150378e-06  3.3779610402658305e-06  1.9351542884949251e-06  8.9283729252829306e-08  -3.8430189822687414e-07  -5.4346831401994358e-08  7.2565490121697186e-08  2.1838974610027904e-09  -1.2912604147315822e-08  2.6890733785511430e-09  1.3240500235210335e-09  -8.6476028703778141e-10  1.1602878792382159e-10  8.3228361899406880e-11  -5.3115167945721018e-11  1.2484551826543338e-11  1.4049281025233115e-12  -2.4140402509877169e-12  1.0741910292228787e-12  -2.6551677970197104e-13  1.1212265378703881e-14  2.6284940766793670e-14  -1.6542104687127211e-14  6.7002929731717937e-15  -2.1580916297951187e-15  5.8697088444146468e-16  -1.3747444908906985e-16  2.7917579847395318e-17  -4.4378474420742321e-18  0.0000000000000000e+00  0.0000000000000000e+00  -1.2665403746904572e-09  2.5177276788572477e-09  1.7909433830867655e-09  -1.9725381029545838e-08  2.9337219750893533e-08  6.4900139378915299e-08  -2.4790663789810557e-07  -1.3781242614355911e-07  1.3374062487715590e-06  9.2082171952675830e-07  -5.4469156478444783e-06  -1.2589386810839050e-05  -1.1220621290631402e-05  -3.3517445050445107e-06  1.3636678705841769e-06  8.5436451268534891e-07  -2.4681685954046337e-07  -1.3156549483729955e-07  6.4579817573831097e-08  6.9524604866650556e-09  -1.2451062820341832e-08  3.0631231318933748e-09  7.6175781796455219e-10  -7.6917423513709607e-10  2.2748256071468028e-10  2.9854778565570158e-12  -3.2962193394764730e-11  1.6478585757010550e-11  -4.4178645480339655e-12  3.1290183363893366e-13  3.7250608018328760e-13  -2.5187818878812761e-13  1.0431670442294076e-13  -3.3901568865499822e-14  9.2410384664262434e-15  -2.1580916297951151e-15  4.3056819012677975e-16  -7.1410816498615344e-17  7.3774991347506930e-18  0.0000000000000000e+00  0.0000000000000000e+00  6.8237496030695790e-10  4.7055805887984115e-09  -1.9258357347354901e-08  2.2461548758362671e-08  6.4900139378915219e-08  -2.6779204303266576e-07  7.2519443079453644e-08  1.4115960264107910e-06  -1.5164379334215129e-06  -6.8956808220562819e-06  5.0159099672400872e-06  3.6885526677981829e-05  5.1652777838441226e-05  2.8774844471677379e-05  1.4056254492097943e-07  -5.7760453319328845e-06  -2.7227400168503445e-07  1.0574682206934597e-06  -1.1847728561961912e-07  -1.4908954461880686e-07  6.1807110961089144e-08  2.5590888168673394e-09  -1.0375236412337198e-08  3.9291034069221036e-09  -2.6020745196051311e-10  -4.2829559760208002e-10  2.4949600156554455e-10  -7.3009971733769553e-11  7.1660748943012946e-12  5.1705703762071373e-12  -3.8230545258880100e-12  1.6240736261689928e-12  -5.3308366099111874e-13  1.4564018579672516e-13  -3.3901568865499829e-14  6.7002929731717842e-15  -1.0844919946000527e-15  1.2587661526601251e-16  5.2095821690648762e-19  0.0000000000000000e+00  0.0000000000000000e+00  6.2317403592837118e-09  -1.3556791913268506e-08  1.1949823940596244e-09  8.6094955816376694e-08  -2.4790663789810568e-07  7.2519443079454120e-08  1.3429560936397881e-06  -2.6804069669713840e-06  -4.2567872967826560e-06  1.7569774447030110e-05  1.9533794227848752e-05  -7.4372613421888099e-05  -1.9090799456716995e-04  -1.7115141619352393e-04  -4.5852901170284209e-05  2.3337222865284970e-05  1.0647649917275052e-05  -4.6998358904732422e-06  -1.1594005586667794e-06  1.0374952858971152e-06  -1.1029604908022443e-07  -1.2401273889710034e-07  6.4221648241075011e-08  -8.8941266227337596e-09  -5.1180882878243480e-09  3.7097478213913887e-09  -1.1972746967773337e-09  1.4969517828501943e-10  6.9632455118615527e-11  -5.7788897646763032e-11  2.5282960027015714e-11  -8.3924149414921657e-12  2.2985817053071159e-12  -5.3308366099111955e-13  1.0431670442294090e-13  -1.6542104687127221e-14  1.8288379994739488e-15  -1.7825867949934407e-17  -6.2921586348033660e-17  0.0000000000000000e+00  0.0000000000000000e+00  8.5737925042277910e-10  -2.6481724427353715e-08  9.6204130001551739e-08  -1.5701829130102908e-07  -1.3781242614355885e-07  1.4115960264107908e-06  -2.6804069669713861e-06  -2.8917974536924812e-06  2.0593782846297235e-05  -8.3077687912473534e-06  -1.0608193228063220e-04  4.0481655597224485e-05  5.4133129169690538e-04  7.9443516135076090e-04  4.2693825248348900e-04  -1.9041772358704309e-05  -8.4741989605127953e-05  4.9979981712508578e-06  1.3957865373345247e-05  -3.8336728603077860e-06  -1.1361086217773326e-06  9.8009575989152157e-07  -2.1133218334399840e-07  -5.1619719334361817e-08  5.3736735638431137e-08  -1.9449787989011532e-08  2.9641939591240655e-09  8.9467777032431648e-10  -8.6883528289373828e-10  3.9352938594818776e-10  -1.3230493162203704e-10  3.6337734032551610e-11  -8.3924149414921318e-12  1.6240736261689872e-12  -2.5187818878812650e-13  2.6284940766793487e-14  1.8239667320969090e-16  -9.5461642977884222e-16  2.8452500579895919e-16  0.0000000000000000e+00  0.0000000000000000e+00  -2.5866822696196393e-08  3.9486141548750992e-08  3.6535280015287733e-08  -4.3381582297676466e-07  1.3374062487715609e-06  -1.5164379334215152e-06  -4.2567872967826560e-06  2.0593782846297248e-05  -1.8397104882933929e-05  -9.0515689380450941e-05  2.0878137473593960e-04  3.7897726701376766e-04  -9.8493991910077075e-04  -2.9078717279448218e-03  -2.6236042009402760e-03  -6.0446888728048437e-04  3.9415588749628738e-04  1.1624678318877280e-04  -8.0775337099851585e-05  -2.3750002172517144e-06  1.3481754198143539e-05  -4.2868551378074653e-06  -3.0233058008477373e-07  7.4770960551031444e-07  -3.1209239616133314e-07  5.6656896534889596e-08  1.0595244045353970e-08  -1.2968188207223405e-08  6.1232870645193145e-09  -2.0891161226084553e-09  5.7557158060633633e-10  -1.3230493162203768e-10  2.5282960027015759e-11  -3.8230545258880246e-12  3.7250608018329088e-13  1.1212265378703167e-14  -1.5865679435076619e-14  4.4711586327142946e-15  -7.5923225968724574e-16  0.0000000000000000e+00  0.0000000000000000e+00  -5.1613791819075967e-08  1.6923711779002702e-07  -3.9133370069008994e-07  4.7166128528684795e-07  9.2082171952675745e-07  -6.8956808220562879e-06  1.7569774447030126e-05  -8.3077687912473890e-06  -9.0515689380450982e-05  2.5113057801350594e-04  1.1315136945905591e-04  -1.5560993289600901e-03  9.7639893522419037e-06  7.9058158537849352e-03  1.2315887995083557e-02  6.3084514850322154e-03  -6.6575121957956483e-04  -1.1916384052404608e-03  2.2037373746243031e-04  1.5158978064676293e-04  -7.7471513181969458e-05  4.0367300117111735e-06  9.7213001571873781e-06  -4.9215303780725442e-06  1.0552952790642995e-06  1.0562862259622279e-07  -1.9161817444845073e-07  9.5223208428255972e-08  -3.3050206920116731e-08  9.1378615316745433e-09  -2.0891161226084524e-09  3.9352938594818859e-10  -5.7788897646762916e-11  5.1705703762071260e-12  3.1290183363893563e-13  -2.6551677970197089e-13  6.9372819711817495e-14  -1.1868463808676018e-14  1.0186646698009582e-15  0.0000000000000000e+00  0.0000000000000000e+00  -4.5495174632244305e-08  2.2093753908500657e-07  -8.3281624065962197e-07  2.5061971875150370e-06  -5.4469156478444834e-06  5.0159099672400982e-06  1.9533794227848752e-05  -1.0608193228063229e-04  2.0878137473593988e-04  1.1315136945905584e-04  -1.5624352519122155e-03  1.9768932575702025e-03  6.9101242116063957e-03  -1.2345386674660043e-02  -4.4558874880438998e-02  -4.0486197411681309e-02  -7.4268052497028399e-03  6.5372275450497714e-03  8.7681721183756594e-04  -1.2282475090985424e-03  2.0813455602593564e-04  1.1057512463482823e-04  -7.5568456647887437e-05  1.9245418142324222e-05  5.7546500532511860e-07  -2.7901634414606689e-06  1.4793797829730815e-06  -5.2405572121199878e-07  1.4548024243787446e-07  -3.3050206920116724e-08  6.1232870645193079e-09  -8.6883528289374055e-10  6.9632455118615669e-11  7.1660748943012300e-12  -4.4178645480339469e-12  1.0741910292228732e-12  -1.7119099792098854e-13  1.4734741225684868e-14  1.5912152313569107e-15  0.0000000000000000e+00  0.0000000000000000e+00  -1.5680887079551842e-08  1.2939689436854847e-07  -7.3823686634187201e-07  3.3779610402658288e-06  -1.2589386810839040e-05  3.6885526677981843e-05  -7.4372613421888153e-05  4.0481655597224668e-05  3.7897726701376766e-04  -1.5560993289600918e-03  1.9768932575702043e-03  5.2562865872525077e-03  -2.0988178037235693e-02  -1.0327360605047036e-02  1.1441218901705906e-01  1.9311490027647490e-01  9.2445098681982224e-02  -1.6951869624748782e-02  -1.5389390170306208e-02  5.3897523737803169e-03  8.6899591359879504e-04  -1.1090097190000073e-03  3.4398643333876045e-04  -1.0580203311546557e-05  -3.9723375615995764e-05  2.2946125412468669e-05  -8.3328958759871735e-06  2.3241383223235613e-06  -5.2405572121199952e-07  9.5223208428256158e-08  -1.2968188207223427e-08  8.9467777032432382e-10  1.4969517828501840e-10  -7.3009971733769424e-11  1.6478585757010531e-11  -2.4140402509877128e-12  1.6360326686235534e-13  3.0960885666370818e-14  -1.3557296006030449e-14  0.0000000000000000e+00  0.0000000000000000e+00  4.2438148211253271e-09  1.0465860406150734e-08  -2.3957489559091288e-07  1.9351542884949225e-06  -1.1220621290631398e-05  5.1652777838441206e-05  -1.9090799456716995e-04  5.4133129169690560e-04  -9.8493991910077162e-04  9.7639893522429963e-06  6.9101242116064001e-03  -2.0988178037235707e-02  6.2758538104779353e-03  1.1859929944615104e-01  -1.3739426334749327e-01  -6.8866657950993071e-01  -6.3067769026569276e-01  -7.7194585604289712e-02  1.0496584741430234e-01  -3.8062906566921494e-03  -1.4893817289549921e-02  6.0027843942552870e-03  -5.2754668559873766e-04  -5.4474818404660799e-04  3.5492181785062605e-04  -1.3296566818059736e-04  3.7291987490986482e-05  -8.3328958759871414e-06  1.4793797829730764e-06  -1.9161817444844980e-07  1.0595244045353866e-08  2.9641939591240812e-09  -1.1972746967773306e-09  2.4949600156554372e-10  -3.2962193394764536e-11  1.4049281025232792e-12  6.4412197312827972e-13  -2.2259908400985586e-13  3.7794198412809862e-14  0.0000000000000000e+00  0.0000000000000000e+00  4.2994279217846154e-09  -2.5084015916219038e-08  7.8717477641843821e-08  8.9283729252828393e-08  -3.3517445050445048e-06  2.8774844471677366e-05  -1.7115141619352390e-04  7.9443516135076079e-04  -2.9078717279448227e-03  7.9058158537849421e-03  -1.2345386674660053e-02  -1.0327360605047041e-02  1.1859929944615116e-01  -2.3303008744067349e-01  -3.4159795271795507e-01  1.6245157047434422e+00  3.0821553857191946e+00  1.3301554244412188e+00  -3.8388119538985443e-01  -1.5957579858427384e-01  1.0087448459243090e-01  -1.5061365578019672e-02  -6.9620493124378695e-03  5.4628213036879963e-03  -2.1313552926230028e-03  6.0178742291792974e-04  -1.3296566818059793e-04  2.2946125412468689e-05  -2.7901634414606824e-06  1.0562862259622569e-07  5.6656896534888934e-08  -1.9449787989011479e-08  3.7097478213913667e-09  -4.2829559760207754e-10  2.9854778565567403e-12  1.2484551826543335e-11  -3.4966126937547940e-12  5.5817377157028814e-13  -3.4216176636451134e-14  0.0000000000000000e+00  0.0000000000000000e+00  -4.0809480684285189e-10  -5.7016518564434038e-09  6.4122681896199311e-08  -3.8430189822687399e-07  1.3636678705841788e-06  1.4056254492096071e-07  -4.5852901170284121e-05  4.2693825248348868e-04  -2.6236042009402743e-03  1.2315887995083562e-02  -4.4558874880439039e-02  1.1441218901705917e-01  -1.3739426334749358e-01  -3.4159795271795534e-01  1.8524856686737410e+00  -1.0413995407624119e+00  -1.0784818423029398e+01  -9.9671241465043963e+00  -3.8421030178859278e-01  1.5619523850520214e+00  -3.6524716216851605e-01  -7.5410755737235879e-02  8.3300044608128204e-02  -3.4373777640887379e-02  9.7866528241232226e-03  -2.1313552926229998e-03  3.5492181785062670e-04  -3.9723375615995683e-05  5.7546500532511257e-07  1.0552952790642995e-06  -3.1209239616133261e-07  5.3736735638431230e-08  -5.1180882878243364e-09  -2.6020745196051337e-10  2.2748256071468010e-10  -5.3115167945720921e-11  7.2114696563031595e-12  -2.7702612746267589e-13  -1.5060499573058559e-13  0.0000000000000000e+00  0.0000000000000000e+00  -8.2406807458293661e-10  4.6570434668427221e-09  -1.1394304761131770e-08  -5.4346831401994074e-08  8.5436451268534774e-07  -5.7760453319328828e-06  2.3337222865284997e-05  -1.9041772358704543e-05  -6.0446888728048296e-04  6.3084514850322067e-03  -4.0486197411681295e-02  1.9311490027647488e-01  -6.8866657950993093e-01  1.6245157047434440e+00  -1.0413995407624115e+00  -8.4211670674907086e+00  2.1972077735773748e+01  5.0754234892997061e+01  1.8228743646046055e+01  -8.1352883460227456e+00  -4.0227544082131556e-01  1.2453019781622690e+00  -5.5920534965369306e-01  1.6093846695020081e-01  -3.4373777640887372e-02  5.4628213036879911e-03  -5.4474818404660983e-04  -1.0580203311546281e-05  1.9245418142324151e-05  -4.9215303780725239e-06  7.4770960551030978e-07  -5.1619719334361268e-08  -8.8941266227338373e-09  3.9291034069221152e-09  -7.6917423513709742e-10  8.3228361899406958e-11  1.5846141972298192e-12  -2.9736793305013011e-12  6.8601426523407089e-13  0.0000000000000000e+00  0.0000000000000000e+00  1.3806307163639167e-10  7.8789523676040744e-10  -1.1474845638498828e-08  7.2565490121697213e-08  -2.4681685954046385e-07  -2.7227400168503112e-07  1.0647649917275037e-05  -8.4741989605127926e-05  3.9415588749628754e-04  -6.6575121957956646e-04  -7.4268052497028234e-03  9.2445098681982182e-02  -6.3067769026569276e-01  3.0821553857191963e+00  -1.0784818423029405e+01  2.1972077735773762e+01  9.0795410860474828e+00  -1.7283667297604177e+02  -1.6150621265360894e+02  1.4100545148872849e+01  1.7687878212472722e+01  -9.2196920291959756e+00  2.6928851239614011e+00  -5.5920534965369395e-01  8.3300044608128412e-02  -6.9620493124378990e-03  -5.2754668559873278e-04  3.4398643333875898e-04  -7.5568456647887275e-05  9.7213001571873561e-06  -3.0233058008477288e-07  -2.1133218334399877e-07  6.4221648241074905e-08  -1.0375236412337187e-08  7.6175781796454971e-10  1.1602878792382188e-10  -5.3304414606137617e-11  1.0280443568175315e-11  -9.1837667971640257e-13  0.0000000000000000e+00  0.0000000000000000e+00  1.2683536690296150e-10  -9.3288865162273610e-10  3.3863981447024248e-09  2.1838974610027465e-09  -1.3156549483729942e-07  1.0574682206934599e-06  -4.6998358904732473e-06  4.9979981712509044e-06  1.1624678318877260e-04  -1.1916384052404604e-03  6.5372275450497758e-03  -1.6951869624748820e-02  -7.7194585604289448e-02  1.3301554244412177e+00  -9.9671241465043980e+00  5.0754234892997104e+01  -1.7283667297604177e+02  2.4553169038699974e+02  8.9624488477653870e+02  2.0459841096953511e+02  -1.5558952449405274e+02  4.6463092096430998e+01  -9.2196920291959383e+00  1.2453019781622641e+00  -7.5410755737235199e-02  -1.5061365578019700e-02  6.0027843942552957e-03  -1.1090097190000036e-03  1.1057512463482766e-04  4.0367300117112717e-06  -4.2868551378074720e-06  9.8009575989152517e-07  -1.2401273889710039e-07  2.5590888168673692e-09  3.0631231318933682e-09  -8.6476028703777862e-10  1.2996421916986869e-10  -7.1276674231680863e-12  -2.1065149361251702e-12  0.0000000000000000e+00  0.0000000000000000e+00  -4.9321328453995864e-11  4.2590055741004004e-11  1.3578082363111563e-09  -1.2912604147315830e-08  6.4579817573831177e-08  -1.1847728561961942e-07  -1.1594005586667784e-06  1.3957865373345247e-05  -8.0775337099851652e-05  2.2037373746243069e-04  8.7681721183756410e-04  -1.5389390170306208e-02  1.0496584741430236e-01  -3.8388119538985488e-01  -3.8421030178858812e-01  1.8228743646046034e+01  -1.6150621265360886e+02  8.9624488477653858e+02  -2.9151454171474534e+03  -2.7644561392651867e+03  8.5877316433886494e+02  -1.5558952449405339e+02  1.7687878212472775e+01  -4.0227544082133021e-01  -3.6524716216851305e-01  1.0087448459243024e-01  -1.4893817289549872e-02  8.6899591359878203e-04  2.0813455602593714e-04  -7.7471513181969634e-05  1.3481754198143542e-05  -1.1361086217773353e-06  -1.1029604908022423e-07  6.1807110961089144e-08  -1.245106282034182