<?xml version="1.0"?>
<VTKFile type="UnstructuredGrid"  version="0.1"  >
<UnstructuredGrid>
<Piece  NumberOfPoints="1681" NumberOfCells="3200">
<Points>
<DataArray  type="Float64"  NumberOfComponents="3"  format="ascii">-2 -2 0  -1.9 -2 0  -1.8 -2 0  -1.7 -2 0  -1.6 -2 0  -1.5 -2 0  -1.4 -2 0  -1.3 -2 0  -1.2 -2 0  -1.1 -2 0  -1 -2 0  -0.8999999999999999 -2 0  -0.8 -2 0  -0.7 -2 0  -0.6000000000000001 -2 0  -0.5 -2 0  -0.3999999999999999 -2 0  -0.3 -2 0  -0.2 -2 0  -0.1000000000000001 -2 0  0 -2 0  0.1000000000000001 -2 0  0.2000000000000002 -2 0  0.2999999999999998 -2 0  0.3999999999999999 -2 0  0.5 -2 0  0.6000000000000001 -2 0  0.7000000000000002 -2 0  0.7999999999999998 -2 0  0.8999999999999999 -2 0  1 -2 0  1.1 -2 0  1.2 -2 0  1.3 -2 0  1.4 -2 0  1.5 -2 0  1.6 -2 0  1.7 -2 0  1.8 -2 0  1.9 -2 0  2 -2 0  -2 -1.9 0  -1.9 -1.9 0  -1.8 -1.9 0  -1.7 -1.9 0  -1.6 -1.9 0  -1.5 -1.9 0  -1.4 -1.9 0  -1.3 -1.9 0  -1.2 -1.9 0  -1.1 -1.9 0  -1 -1.9 0  -0.8999999999999999 -1.9 0  -0.8 -1.9 0  -0.7 -1.9 0  -0.6000000000000001 -1.9 0  -0.5 -1.9 0  -0.3999999999999999 -1.9 0  -0.3 -1.9 0  -0.2 -1.9 0  -0.1000000000000001 -1.9 0  0 -1.9 0  0.1000000000000001 -1.9 0  0.2000000000000002 -1.9 0  0.2999999999999998 -1.9 0  0.3999999999999999 -1.9 0  0.5 -1.9 0  0.6000000000000001 -1.9 0  0.7000000000000002 -1.9 0  0.7999999999999998 -1.9 0  0.8999999999999999 -1.9 0  1 -1.9 0  1.1 -1.9 0  1.2 -1.9 0  1.3 -1.9 0  1.4 -1.9 0  1.5 -1.9 0  1.6 -1.9 0  1.7 -1.9 0  1.8 -1.9 0  1.9 -1.9 0  2 -1.9 0  -2 -1.8 0  -1.9 -1.8 0  -1.8 -1.8 0  -1.7 -1.8 0  -1.6 -1.8 0  -1.5 -1.8 0  -1.4 -1.8 0  -1.3 -1.8 0  -1.2 -1.8 0  -1.1 -1.8 0  -1 -1.8 0  -0.8999999999999999 -1.8 0  -0.8 -1.8 0  -0.7 -1.8 0  -0.6000000000000001 -1.8 0  -0.5 -1.8 0  -0.3999999999999999 -1.8 0  -0.3 -1.8 0  -0.2 -1.8 0  -0.1000000000000001 -1.8 0  0 -1.8 0  0.1000000000000001 -1.8 0  0.2000000000000002 -1.8 0  0.2999999999999998 -1.8 0  0.3999999999999999 -1.8 0  0.5 -1.8 0  0.6000000000000001 -1.8 0  0.7000000000000002 -1.8 0  0.7999999999999998 -1.8 0  0.8999999999999999 -1.8 0  1 -1.8 0  1.1 -1.8 0  1.2 -1.8 0  1.3 -1.8 0  1.4 -1.8 0  1.5 -1.8 0  1.6 -1.8 0  1.7 -1.8 0  1.8 -1.8 0  1.9 -1.8 0  2 -1.8 0  -2 -1.7 0  -1.9 -1.7 0  -1.8 -1.7 0  -1.7 -1.7 0  -1.6 -1.7 0  -1.5 -1.7 0  -1.4 -1.7 0  -1.3 -1.7 0  -1.2 -1.7 0  -1.1 -1.7 0  -1 -1.7 0  -0.8999999999999999 -1.7 0  -0.8 -1.7 0  -0.7 -1.7 0  -0.6000000000000001 -1.7 0  -0.5 -1.7 0  -0.3999999999999999 -1.7 0  -0.3 -1.7 0  -0.2 -1.7 0  -0.1000000000000001 -1.7 0  0 -1.7 0  0.1000000000000001 -1.7 0  0.2000000000000002 -1.7 0  0.2999999999999998 -1.7 0  0.3999999999999999 -1.7 0  0.5 -1.7 0  0.6000000000000001 -1.7 0  0.7000000000000002 -1.7 0  0.7999999999999998 -1.7 0  0.8999999999999999 -1.7 0  1 -1.7 0  1.1 -1.7 0  1.2 -1.7 0  1.3 -1.7 0  1.4 -1.7 0  1.5 -1.7 0  1.6 -1.7 0  1.7 -1.7 0  1.8 -1.7 0  1.9 -1.7 0  2 -1.7 0  -2 -1.6 0  -1.9 -1.6 0  -1.8 -1.6 0  -1.7 -1.6 0  -1.6 -1.6 0  -1.5 -1.6 0  -1.4 -1.6 0  -1.3 -1.6 0  -1.2 -1.6 0  -1.1 -1.6 0  -1 -1.6 0  -0.8999999999999999 -1.6 0  -0.8 -1.6 0  -0.7 -1.6 0  -0.6000000000000001 -1.6 0  -0.5 -1.6 0  -0.3999999999999999 -1.6 0  -0.3 -1.6 0  -0.2 -1.6 0  -0.1000000000000001 -1.6 0  0 -1.6 0  0.1000000000000001 -1.6 0  0.2000000000000002 -1.6 0  0.2999999999999998 -1.6 0  0.3999999999999999 -1.6 0  0.5 -1.6 0  0.6000000000000001 -1.6 0  0.7000000000000002 -1.6 0  0.7999999999999998 -1.6 0  0.8999999999999999 -1.6 0  1 -1.6 0  1.1 -1.6 0  1.2 -1.6 0  1.3 -1.6 0  1.4 -1.6 0  1.5 -1.6 0  1.6 -1.6 0  1.7 -1.6 0  1.8 -1.6 0  1.9 -1.6 0  2 -1.6 0  -2 -1.5 0  -1.9 -1.5 0  -1.8 -1.5 0  -1.7 -1.5 0  -1.6 -1.5 0  -1.5 -1.5 0  -1.4 -1.5 0  -1.3 -1.5 0  -1.2 -1.5 0  -1.1 -1.5 0  -1 -1.5 0  -0.8999999999999999 -1.5 0  -0.8 -1.5 0  -0.7 -1.5 0  -0.6000000000000001 -1.5 0  -0.5 -1.5 0  -0.3999999999999999 -1.5 0  -0.3 -1.5 0  -0.2 -1.5 0  -0.1000000000000001 -1.5 0  0 -1.5 0  0.1000000000000001 -1.5 0  0.2000000000000002 -1.5 0  0.2999999999999998 -1.5 0  0.3999999999999999 -1.5 0  0.5 -1.5 0  0.6000000000000001 -1.5 0  0.7000000000000002 -1.5 0  0.7999999999999998 -1.5 0  0.8999999999999999 -1.5 0  1 -1.5 0  1.1 -1.5 0  1.2 -1.5 0  1.3 -1.5 0  1.4 -1.5 0  1.5 -1.5 0  1.6 -1.5 0  1.7 -1.5 0  1.8 -1.5 0  1.9 -1.5 0  2 -1.5 0  -2 -1.4 0  -1.9 -1.4 0  -1.8 -1.4 0  -1.7 -1.4 0  -1.6 -1.4 0  -1.5 -1.4 0  -1.4 -1.4 0  -1.3 -1.4 0  -1.2 -1.4 0  -1.1 -1.4 0  -1 -1.4 0  -0.8999999999999999 -1.4 0  -0.8 -1.4 0  -0.7 -1.4 0  -0.6000000000000001 -1.4 0  -0.5 -1.4 0  -0.3999999999999999 -1.4 0  -0.3 -1.4 0  -0.2 -1.4 0  -0.1000000000000001 -1.4 0  0 -1.4 0  0.1000000000000001 -1.4 0  0.2000000000000002 -1.4 0  0.2999999999999998 -1.4 0  0.3999999999999999 -1.4 0  0.5 -1.4 0  0.6000000000000001 -1.4 0  0.7000000000000002 -1.4 0  0.7999999999999998 -1.4 0  0.8999999999999999 -1.4 0  1 -1.4 0  1.1 -1.4 0  1.2 -1.4 0  1.3 -1.4 0  1.4 -1.4 0  1.5 -1.4 0  1.6 -1.4 0  1.7 -1.4 0  1.8 -1.4 0  1.9 -1.4 0  2 -1.4 0  -2 -1.3 0  -1.9 -1.3 0  -1.8 -1.3 0  -1.7 -1.3 0  -1.6 -1.3 0  -1.5 -1.3 0  -1.4 -1.3 0  -1.3 -1.3 0  -1.2 -1.3 0  -1.1 -1.3 0  -1 -1.3 0  -0.8999999999999999 -1.3 0  -0.8 -1.3 0  -0.7 -1.3 0  -0.6000000000000001 -1.3 0  -0.5 -1.3 0  -0.3999999999999999 -1.3 0  -0.3 -1.3 0  -0.2 -1.3 0  -0.1000000000000001 -1.3 0  0 -1.3 0  0.1000000000000001 -1.3 0  0.2000000000000002 -1.3 0  0.2999999999999998 -1.3 0  0.3999999999999999 -1.3 0  0.5 -1.3 0  0.6000000000000001 -1.3 0  0.7000000000000002 -1.3 0  0.7999999999999998 -1.3 0  0.8999999999999999 -1.3 0  1 -1.3 0  1.1 -1.3 0  1.2 -1.3 0  1.3 -1.3 0  1.4 -1.3 0  1.5 -1.3 0  1.6 -1.3 0  1.7 -1.3 0  1.8 -1.3 0  1.9 -1.3 0  2 -1.3 0  -2 -1.2 0  -1.9 -1.2 0  -1.8 -1.2 0  -1.7 -1.2 0  -1.6 -1.2 0  -1.5 -1.2 0  -1.4 -1.2 0  -1.3 -1.2 0  -1.2 -1.2 0  -1.1 -1.2 0  -1 -1.2 0  -0.8999999999999999 -1.2 0  -0.8 -1.2 0  -0.7 -1.2 0  -0.6000000000000001 -1.2 0  -0.5 -1.2 0  -0.3999999999999999 -1.2 0  -0.3 -1.2 0  -0.2 -1.2 0  -0.1000000000000001 -1.2 0  0 -1.2 0  0.1000000000000001 -1.2 0  0.2000000000000002 -1.2 0  0.2999999999999998 -1.2 0  0.3999999999999999 -1.2 0  0.5 -1.2 0  0.6000000000000001 -1.2 0  0.7000000000000002 -1.2 0  0.7999999999999998 -1.2 0  0.8999999999999999 -1.2 0  1 -1.2 0  1.1 -1.2 0  1.2 -1.2 0  1.3 -1.2 0  1.4 -1.2 0  1.5 -1.2 0  1.6 -1.2 0  1.7 -1.2 0  1.8 -1.2 0  1.9 -1.2 0  2 -1.2 0  -2 -1.1 0  -1.9 -1.1 0  -1.8 -1.1 0  -1.7 -1.1 0  -1.6 -1.1 0  -1.5 -1.1 0  -1.4 -1.1 0  -1.3 -1.1 0  -1.2 -1.1 0  -1.1 -1.1 0  -1 -1.1 0  -0.8999999999999999 -1.1 0  -0.8 -1.1 0  -0.7 -1.1 0  -0.6000000000000001 -1.1 0  -0.5 -1.1 0  -0.3999999999999999 -1.1 0  -0.3 -1.1 0  -0.2 -1.1 0  -0.1000000000000001 -1.1 0  0 -1.1 0  0.1000000000000001 -1.1 0  0.2000000000000002 -1.1 0  0.2999999999999998 -1.1 0  0.3999999999999999 -1.1 0  0.5 -1.1 0  0.6000000000000001 -1.1 0  0.7000000000000002 -1.1 0  0.7999999999999998 -1.1 0  0.8999999999999999 -1.1 0  1 -1.1 0  1.1 -1.1 0  1.2 -1.1 0  1.3 -1.1 0  1.4 -1.1 0  1.5 -1.1 0  1.6 -1.1 0  1.7 -1.1 0  1.8 -1.1 0  1.9 -1.1 0  2 -1.1 0  -2 -1 0  -1.9 -1 0  -1.8 -1 0  -1.7 -1 0  -1.6 -1 0  -1.5 -1 0  -1.4 -1 0  -1.3 -1 0  -1.2 -1 0  -1.1 -1 0  -1 -1 0  -0.8999999999999999 -1 0  -0.8 -1 0  -0.7 -1 0  -0.6000000000000001 -1 0  -0.5 -1 0  -0.3999999999999999 -1 0  -0.3 -1 0  -0.2 -1 0  -0.1000000000000001 -1 0  0 -1 0  0.1000000000000001 -1 0  0.2000000000000002 -1 0  0.2999999999999998 -1 0  0.3999999999999999 -1 0  0.5 -1 0  0.6000000000000001 -1 0  0.7000000000000002 -1 0  0.7999999999999998 -1 0  0.8999999999999999 -1 0  1 -1 0  1.1 -1 0  1.2 -1 0  1.3 -1 0  1.4 -1 0  1.5 -1 0  1.6 -1 0  1.7 -1 0  1.8 -1 0  1.9 -1 0  2 -1 0  -2 -0.8999999999999999 0  -1.9 -0.8999999999999999 0  -1.8 -0.8999999999999999 0  -1.7 -0.8999999999999999 0  -1.6 -0.8999999999999999 0  -1.5 -0.8999999999999999 0  -1.4 -0.8999999999999999 0  -1.3 -0.8999999999999999 0  -1.2 -0.8999999999999999 0  -1.1 -0.8999999999999999 0  -1 -0.8999999999999999 0  -0.8999999999999999 -0.8999999999999999 0  -0.8 -0.8999999999999999 0  -0.7 -0.8999999999999999 0  -0.6000000000000001 -0.8999999999999999 0  -0.5 -0.8999999999999999 0  -0.3999999999999999 -0.8999999999999999 0  -0.3 -0.8999999999999999 0  -0.2 -0.8999999999999999 0  -0.1000000000000001 -0.8999999999999999 0  0 -0.8999999999999999 0  0.1000000000000001 -0.8999999999999999 0  0.2000000000000002 -0.8999999999999999 0  0.2999999999999998 -0.8999999999999999 0  0.3999999999999999 -0.8999999999999999 0  0.5 -0.8999999999999999 0  0.6000000000000001 -0.8999999999999999 0  0.7000000000000002 -0.8999999999999999 0  0.7999999999999998 -0.8999999999999999 0  0.8999999999999999 -0.8999999999999999 0  1 -0.8999999999999999 0  1.1 -0.8999999999999999 0  1.2 -0.8999999999999999 0  1.3 -0.8999999999999999 0  1.4 -0.8999999999999999 0  1.5 -0.8999999999999999 0  1.6 -0.8999999999999999 0  1.7 -0.8999999999999999 0  1.8 -0.8999999999999999 0  1.9 -0.8999999999999999 0  2 -0.8999999999999999 0  -2 -0.8 0  -1.9 -0.8 0  -1.8 -0.8 0  -1.7 -0.8 0  -1.6 -0.8 0  -1.5 -0.8 0  -1.4 -0.8 0  -1.3 -0.8 0  -1.2 -0.8 0  -1.1 -0.8 0  -1 -0.8 0  -0.8999999999999999 -0.8 0  -0.8 -0.8 0  -0.7 -0.8 0  -0.6000000000000001 -0.8 0  -0.5 -0.8 0  -0.3999999999999999 -0.8 0  -0.3 -0.8 0  -0.2 -0.8 0  -0.1000000000000001 -0.8 0  0 -0.8 0  0.1000000000000001 -0.8 0  0.2000000000000002 -0.8 0  0.2999999999999998 -0.8 0  0.3999999999999999 -0.8 0  0.5 -0.8 0  0.6000000000000001 -0.8 0  0.7000000000000002 -0.8 0  0.7999999999999998 -0.8 0  0.8999999999999999 -0.8 0  1 -0.8 0  1.1 -0.8 0  1.2 -0.8 0  1.3 -0.8 0  1.4 -0.8 0  1.5 -0.8 0  1.6 -0.8 0  1.7 -0.8 0  1.8 -0.8 0  1.9 -0.8 0  2 -0.8 0  -2 -0.7 0  -1.9 -0.7 0  -1.8 -0.7 0  -1.7 -0.7 0  -1.6 -0.7 0  -1.5 -0.7 0  -1.4 -0.7 0  -1.3 -0.7 0  -1.2 -0.7 0  -1.1 -0.7 0  -1 -0.7 0  -0.8999999999999999 -0.7 0  -0.8 -0.7 0  -0.7 -0.7 0  -0.6000000000000001 -0.7 0  -0.5 -0.7 0  -0.3999999999999999 -0.7 0  -0.3 -0.7 0  -0.2 -0.7 0  -0.1000000000000001 -0.7 0  0 -0.7 0  0.1000000000000001 -0.7 0  0.2000000000000002 -0.7 0  0.2999999999999998 -0.7 0  0.3999999999999999 -0.7 0  0.5 -0.7 0  0.600000000000000
[...]
<PointData  Scalars="f_1726"> 
<DataArray  type="Float64"  Name="f_1726"  format="ascii">0.0000000000000000e+00  0.0000000000000000e+00  0.0000000000000000e+00  0.0000000000000000e+00  0.0000000000000000e+00  0.0000000000000000e+00  0.0000000000000000e+00  0.0000000000000000e+00  0.0000000000000000e+00  0.0000000000000000e+00  0.0000000000000000e+00  0.0000000000000000e+00  0.0000000000000000e+00  0.0000000000000000e+00  0.0000000000000000e+00  0.0000000000000000e+00  0.0000000000000000e+00  0.0000000000000000e+00  0.0000000000000000e+00  0.0000000000000000e+00  0.0000000000000000e+00  0.0000000000000000e+00  0.0000000000000000e+00  0.0000000000000000e+00  0.0000000000000000e+00  0.0000000000000000e+00  0.0000000000000000e+00  0.0000000000000000e+00  0.0000000000000000e+00  0.0000000000000000e+00  0.0000000000000000e+00  0.0000000000000000e+00  0.0000000000000000e+00  0.0000000000000000e+00  0.0000000000000000e+00  0.0000000000000000e+00  0.0000000000000000e+00  0.0000000000000000e+00  0.0000000000000000e+00  0.0000000000000000e+00  0.0000000000000000e+00  0.0000000000000000e+00  -1.6043898597121617e-11  -1.8696905201412002e-11  1.2286268229253161e-10  -2.9606422879921362e-11  -6.2225657162520404e-10  3.3525366569325934e-10  3.0616800448813350e-09  4.2123400375693733e-10  -1.2708477938341291e-08  -2.5358071315937864e-08  -2.2351969157769062e-08  -7.7040852618288273e-09  2.0850039319520859e-09  2.1123268803911857e-09  -2.0049868166748682e-10  -4.0486808405226414e-10  6.7830963261240201e-11  6.2314745070129298e-11  -2.4231774497741451e-11  -4.4270690974695438e-12  5.2757410211283816e-12  -1.0349395790488633e-12  -4.5120229532401136e-13  3.3704167139153888e-13  -7.3992862908809198e-14  -1.6810550372801397e-14  1.8568447403364920e-14  -6.6607561052148759e-15  7.8177068364199523e-16  5.0047420337546211e-16  -3.7301397762049904e-16  1.3978832273181413e-16  -3.0913637957823442e-17  2.5594894603455749e-19  3.6245961127609992e-18  -2.1803329683632807e-18  8.8711054312039275e-19  -2.9406857755742372e-19  9.3217817068856483e-20  0.0000000000000000e+00  0.0000000000000000e+00  -1.8696905201412014e-11  1.3446065550512385e-10  -1.1961599619187624e-10  -5.8903787108528184e-10  1.2369701156305345e-09  2.3118713806556980e-09  -6.6605084423372252e-09  -1.3010581724973356e-08  1.9399706126887852e-08  8.3146902232383038e-08  1.0854753497135543e-07  6.3573234203765897e-08  5.1419208937820348e-09  -1.2323881700520840e-08  -2.8012453512649165e-09  2.2880248900832328e-09  3.8709621787318495e-10  -4.5833208768310858e-10  2.0924672122829445e-11  7.1850482273553265e-11  -2.4213952456518285e-11  -3.5018527502601427e-12  5.0508248275011462e-12  -1.4609810648655515e-12  -1.3610409251079975e-13  2.7423310334921296e-13  -1.0936385892691081e-13  1.5211212334185866e-14  7.2392398553580936e-15  -5.8310257988021301e-15  2.1966988953393800e-15  -4.6900703576579949e-16  -8.7579233149044647e-18  6.1843706389823742e-17  -3.5084432158149905e-17  1.3716023484966911e-17  -4.3372604702395545e-18  1.1781956317786489e-18  -2.9406857755742406e-19  0.0000000000000000e+00  0.0000000000000000e+00  1.2286268229253171e-10  -1.1961599619187629e-10  -5.3852828439125578e-10  1.5948823350442094e-09  8.7989795809453150e-10  -9.4617113339374913e-09  5.8709983711473176e-10  4.7265490549862427e-08  1.7949935540930686e-08  -1.9226388026700940e-07  -4.0916609455367936e-07  -3.6269885325171639e-07  -1.1770414600032210e-07  3.8674225270054037e-08  3.1503741213061902e-08  -5.5980694799780169e-09  -5.6376395491425328e-09  1.6637515406451084e-09  6.6709685291946731e-10  -4.3906570728365109e-10  1.7885417996961026e-11  6.3851963246220475e-11  -2.6188681346546167e-11  7.7852756802786095e-13  3.5430251371237295e-12  -1.7179004085430697e-12  3.1645981345460075e-13  8.0378967760371260e-14  -8.4106851694678032e-14  3.4083155831806062e-14  -7.7948745172756045e-15  8.9612246727648726e-17  8.9851574126776853e-16  -5.3281544276054900e-16  2.1153994866104409e-16  -6.7541770547295067e-17  1.8302822418967918e-17  -4.3372604702395360e-18  8.8711054312038986e-19  0.0000000000000000e+00  0.0000000000000000e+00  -2.9606422879921265e-11  -5.8903787108528246e-10  1.5948823350442105e-09  2.9931574759583956e-10  -9.6911620179861020e-09  1.1035452641758125e-08  4.2298811084972628e-08  -7.7143741786601335e-08  -2.1313552423329800e-07  2.3172915780332778e-07  1.2313051371149380e-06  1.6596063560255992e-06  9.5074937774404764e-07  4.3865468781725132e-08  -1.8880912637163858e-07  -2.6700825068575601e-08  3.5651728127866208e-08  1.0729579364548198e-09  -6.3440163045934438e-09  1.3211529729518450e-09  6.5051130209554634e-10  -4.2486033784850393e-10  5.7005427719547234e-11  4.0890441530665078e-11  -2.6095703672517416e-11  6.1337124130454136e-12  6.9024703983062744e-13  -1.1860280496087573e-12  5.2775453548264638e-13  -1.3044950192503185e-13  5.5086327717025070e-15  1.2913901091320544e-14  -8.1272050664730951e-15  3.2918818994533117e-15  -1.0602794238893202e-15  2.8838124507923919e-16  -6.7541770547295387e-17  1.3716023484966927e-17  -2.1803329683632892e-18  0.0000000000000000e+00  0.0000000000000000e+00  -6.2225657162520539e-10  1.2369701156305353e-09  8.7989795809453325e-10  -9.6911620179861119e-09  1.4413498494011978e-08  3.1885709318814025e-08  -1.2179756576596139e-07  -6.7707820084615371e-08  6.5707327129947109e-07  4.5240355358650523e-07  -2.6760923889123959e-06  -6.1852182783283694e-06  -5.5127380661035053e-06  -1.6467260628642412e-06  6.6997571569128978e-07  4.1975285052539744e-07  -1.2126215311097708e-07  -6.4638676664089835e-08  3.1728333879205854e-08  3.4157728511807070e-09  -6.1172591245419402e-09  1.5049251777572995e-09  3.7425479494182530e-10  -3.7789851164896696e-10  1.1176313141176802e-10  1.4667777299544747e-12  -1.6194463173024525e-11  8.0959979510289059e-12  -2.1705152891284795e-12  1.5372997667207321e-13  1.8301379174039130e-13  -1.2374880529234770e-13  5.1251232218572924e-14  -1.6655982262008386e-14  4.5401607633553795e-15  -1.0602794238893182e-15  2.1153994866104454e-16  -3.5084432158149824e-17  3.6245961127609923e-18  0.0000000000000000e+00  0.0000000000000000e+00  3.3525366569326105e-10  2.3118713806557017e-09  -9.4617113339374996e-09  1.1035452641758130e-08  3.1885709318814071e-08  -1.3156734829455533e-07  3.5629105023848317e-08  6.9352301866319585e-07  -7.4503228510492745e-07  -3.3878767650049125e-06  2.4643374993539607e-06  1.8122013187965318e-05  2.5377225309948878e-05  1.4137201172422567e-05  6.9058964916787207e-08  -2.8377951762325335e-06  -1.3376935328462220e-07  5.1953854986434009e-07  -5.8208384855589208e-08  -7.3248315453295624e-08  3.0366091549276965e-08  1.2572910153436350e-09  -5.0973969474283865e-09  1.9303849007970220e-09  -1.2784100704871035e-10  -2.1042341446965224e-10  1.2257842676852347e-10  -3.5870103798792739e-11  3.5207225011103088e-12  2.5403228037099412e-12  -1.8782826429806518e-12  7.9791415013818354e-13  -2.6190622731534930e-13  7.1553631069105861e-14  -1.6655982262008382e-14  3.2918818994533074e-15  -5.3281544276055029e-16  6.1843706389823693e-17  2.5594894603453578e-19  0.0000000000000000e+00  0.0000000000000000e+00  3.0616800448813403e-09  -6.6605084423372434e-09  5.8709983711473879e-10  4.2298811084972654e-08  -1.2179756576596144e-07  3.5629105023848111e-08  6.5979993324390355e-07  -1.3168951287759501e-06  -2.0913773633794104e-06  8.6321035081957734e-06  9.5970346227802455e-06  -3.6539575346756176e-05  -9.3793894430127132e-05  -8.4087405026791562e-05  -2.2527721698776247e-05  1.1465674984861560e-05  5.2312348392432931e-06  -2.3090489863947062e-06  -5.6961833289575145e-07  5.0972576364763179e-07  -5.4188909201761227e-08  -6.0927976151428388e-08  3.1552363791306699e-08  -4.3697215268130556e-09  -2.5145381346686653e-09  1.8226145862087152e-09  -5.8822605500622241e-10  7.3545865800942629e-11  3.4210715790679268e-11  -2.8391926579097940e-11  1.2421623772390932e-11  -4.1232284840705358e-12  1.1293027842830437e-12  -2.6190622731534965e-13  5.1251232218573012e-14  -8.1272050664731030e-15  8.9851574126777287e-16  -8.7579233149048930e-18  -3.0913637957823344e-17  0.0000000000000000e+00  0.0000000000000000e+00  4.2123400375693470e-10  -1.3010581724973372e-08  4.7265490549862513e-08  -7.7143741786601493e-08  -6.7707820084615503e-08  6.9352301866319648e-07  -1.3168951287759497e-06  -1.4207521570790515e-06  1.0117811454579779e-05  -4.0816414772090448e-06  -5.2118496031724428e-05  1.9888806333392752e-05  2.6595832270020250e-04  3.9030931011690674e-04  2.0975654514840140e-04  -9.3553022251586323e-06  -4.1634093139173099e-05  2.4555373592347519e-06  6.8575575070369843e-06  -1.8834994749936343e-06  -5.5817490709980593e-07  4.8152513698077011e-07  -1.0382838361062505e-07  -2.5360983528934584e-08  2.6401082473878812e-08  -9.5557620070637882e-09  1.4563208623234584e-09  4.3955892223913850e-10  -4.2686240031835142e-10  1.9334262959737013e-10  -6.5001965042256805e-11  1.7852880375211352e-11  -4.1232284840705172e-12  7.9791415013818031e-13  -1.2374880529234712e-13  1.2913901091320443e-14  8.9612246727661557e-17  -4.6900703576579899e-16  1.3978832273181378e-16  0.0000000000000000e+00  0.0000000000000000e+00  -1.2708477938341309e-08  1.9399706126887895e-08  1.7949935540930673e-08  -2.1313552423329829e-07  6.5707327129947226e-07  -7.4503228510492777e-07  -2.0913773633794142e-06  1.0117811454579786e-05  -9.0385744039795239e-06  -4.4470735933654673e-05  1.0257516069642423e-04  1.8619311283583177e-04  -4.8390509261597091e-04  -1.4286495151005615e-03  -1.2889876927749567e-03  -2.9697808689690172e-04  1.9365043242247439e-04  5.7112529702958015e-05  -3.9685260209654324e-05  -1.1668475181119750e-06  6.6236420997481528e-06  -2.1061498191543332e-06  -1.4853627568484725e-07  3.6735284953690817e-07  -1.5333229666137513e-07  2.7835769708755402e-08  5.2054876156677265e-09  -6.3713249851900291e-09  3.0083964885651447e-09  -1.0263914693591914e-09  2.8278071953334444e-10  -6.5001965042257128e-11  1.2421623772390947e-11  -1.8782826429806591e-12  1.8301379174039289e-13  5.5086327717021560e-15  -7.7948745172755667e-15  2.1966988953393670e-15  -3.7301397762049741e-16  0.0000000000000000e+00  0.0000000000000000e+00  -2.5358071315937857e-08  8.3146902232383038e-08  -1.9226388026700958e-07  2.3172915780332833e-07  4.5240355358650581e-07  -3.3878767650049188e-06  8.6321035081957869e-06  -4.0816414772090439e-06  -4.4470735933654707e-05  1.2338150099883887e-04  5.5591740019734419e-05  -7.6451809424838823e-04  4.7970887159406547e-06  3.8841603215994743e-03  6.0508471687795266e-03  3.0993685410932652e-03  -3.2708635249952125e-04  -5.8545692145272493e-04  1.0827053688132070e-04  7.4476691847842006e-05  -3.8062077731245644e-05  1.9832623008783767e-06  4.7761153362595314e-06  -2.4179684133300409e-06  5.1847097457379012e-07  5.1895783092017269e-08  -9.4142808769530666e-08  4.6783559687309948e-08  -1.6237704585328934e-08  4.4894695047327888e-09  -1.0263914693591895e-09  1.9334262959737057e-10  -2.8391926579097875e-11  2.5403228037099368e-12  1.5372997667207427e-13  -1.3044950192503180e-13  3.4083155831806150e-14  -5.8310257988021238e-15  5.0047420337546192e-16  0.0000000000000000e+00  0.0000000000000000e+00  -2.2351969157769046e-08  1.0854753497135538e-07  -4.0916609455367920e-07  1.2313051371149378e-06  -2.6760923889123989e-06  2.4643374993539637e-06  9.5970346227802590e-06  -5.2118496031724503e-05  1.0257516069642428e-04  5.5591740019734480e-05  -7.6763095963590898e-04  9.7125590743624298e-04  3.3949728625661904e-03  -6.0653399931596538e-03  -2.1891961182330985e-02  -1.9891037745789340e-02  -3.6488204128017889e-03  3.2117671741105809e-03  4.3078395531872480e-04  -6.0344312695570241e-04  1.0225737596488842e-04  5.4326020186379167e-05  -3.7127098114195376e-05  9.4553542485078930e-06  2.8272835865292218e-07  -1.3708189427294224e-06  7.2682546113814451e-07  -2.5747076282637328e-07  7.1475050229425193e-08  -1.6237704585328937e-08  3.0083964885651423e-09  -4.2686240031835271e-10  3.4210715790679371e-11  3.5207225011102741e-12  -2.1705152891284711e-12  5.2775453548264355e-13  -8.4106851694677767e-14  7.2392398553580163e-15  7.8177068364200510e-16  0.0000000000000000e+00  0.0000000000000000e+00  -7.7040852618288223e-09  6.3573234203765844e-08  -3.6269885325171628e-07  1.6596063560255988e-06  -6.1852182783283694e-06  1.8122013187965331e-05  -3.6539575346756217e-05  1.9888806333392766e-05  1.8619311283583212e-04  -7.6451809424838888e-04  9.7125590743624287e-04  2.5824355359083360e-03  -1.0311579457782062e-02  -5.0738753635108874e-03  5.6211185930247057e-02  9.4878156414991074e-02  4.5418662775328467e-02  -8.3285242903619727e-03  -7.5608716138384300e-03  2.6480078338102881e-03  4.2694131885409224e-04  -5.4486110307587683e-04  1.6900197022718091e-04  -5.1980980403799687e-06  -1.9516260214152998e-05  1.1273527174160859e-05  -4.0939865188023356e-06  1.1418588568763698e-06  -2.5747076282637371e-07  4.6783559687310041e-08  -6.3713249851900431e-09  4.3955892223914222e-10  7.3545865800942216e-11  -3.5870103798792701e-11  8.0959979510288914e-12  -1.1860280496087537e-12  8.0378967760371147e-14  1.5211212334185860e-14  -6.6607561052148681e-15  0.0000000000000000e+00  0.0000000000000000e+00  2.0850039319520901e-09  5.1419208937820000e-09  -1.1770414600032188e-07  9.5074937774404626e-07  -5.5127380661035019e-06  2.5377225309948871e-05  -9.3793894430127173e-05  2.6595832270020272e-04  -4.8390509261597145e-04  4.7970887159403802e-06  3.3949728625661951e-03  -1.0311579457782064e-02  3.0833531675477934e-03  5.8268330757753860e-02  -6.7502374957826849e-02  -3.3834476446393441e-01  -3.0985458117839015e-01  -3.7926022056654504e-02  5.1570158879239297e-02  -1.8700464840855583e-03  -7.3173945893928458e-03  2.9491930237814006e-03  -2.5918588819810756e-04  -2.6763705617102328e-04  1.7437457027352367e-04  -6.5326587670870345e-05  1.8321709081641110e-05  -4.0939865188023178e-06  7.2682546113814218e-07  -9.4142808769530230e-08  5.2054876156676644e-09  1.4563208623234688e-09  -5.8822605500622117e-10  1.2257842676852308e-10  -1.6194463173024415e-11  6.9024703983061027e-13  3.1645981345460352e-13  -1.0936385892691079e-13  1.8568447403364901e-14  0.0000000000000000e+00  0.0000000000000000e+00  2.1123268803911845e-09  -1.2323881700520838e-08  3.8674225270054063e-08  4.3865468781724841e-08  -1.6467260628642395e-06  1.4137201172422559e-05  -8.4087405026791521e-05  3.9030931011690680e-04  -1.4286495151005626e-03  3.8841603215994795e-03  -6.0653399931596616e-03  -5.0738753635109039e-03  5.8268330757753915e-02  -1.1448865444324624e-01  -1.6782849973054656e-01  7.9813134518669737e-01  1.5142758034875283e+00  6.5351091104675751e-01  -1.8860243331212925e-01  -7.8400255787876266e-02  4.9560055250734959e-02  -7.3997117627323363e-03  -3.4204838812990808e-03  2.6839069040059706e-03  -1.0471437498602925e-03  2.9566067226526266e-04  -6.5326587670870670e-05  1.1273527174160879e-05  -1.3708189427294296e-06  5.1895783092018613e-08  2.7835769708755124e-08  -9.5557620070637683e-09  1.8226145862087049e-09  -2.1042341446965103e-10  1.4667777299543212e-12  6.1337124130454136e-12  -1.7179004085430719e-12  2.7423310334921205e-13  -1.6810550372801274e-14  0.0000000000000000e+00  0.0000000000000000e+00  -2.0049868166748808e-10  -2.8012453512649116e-09  3.1503741213061882e-08  -1.8880912637163866e-07  6.6997571569129084e-07  6.9058964916779584e-08  -2.2527721698776207e-05  2.0975654514840121e-04  -1.2889876927749560e-03  6.0508471687795292e-03  -2.1891961182331009e-02  5.6211185930247119e-02  -6.7502374957826933e-02  -1.6782849973054662e-01  9.1013393983233548e-01  -5.1164394035623051e-01  -5.2986262985534696e+00  -4.8968896880862722e+00  -1.8876412465926018e-01  7.6739372513239001e-01  -1.7944745502673987e-01  -3.7049618998673151e-02  4.0925659544606911e-02  -1.6887980403982986e-02  4.8082233742555557e-03  -1.0471437498602910e-03  1.7437457027352394e-04  -1.9516260214152937e-05  2.8272835865291482e-07  5.1847097457379107e-07  -1.5333229666137503e-07  2.6401082473878858e-08  -2.5145381346686591e-09  -1.2784100704871079e-10  1.1176313141176798e-10  -2.6095703672517364e-11  3.5430251371237311e-12  -1.3610409251079856e-13  -7.3992862908809249e-14  0.0000000000000000e+00  0.0000000000000000e+00  -4.0486808405226435e-10  2.2880248900832365e-09  -5.5980694799780483e-09  -2.6700825068575449e-08  4.1975285052539691e-07  -2.8377951762325343e-06  1.1465674984861574e-05  -9.3553022251587458e-06  -2.9697808689690101e-04  3.0993685410932630e-03  -1.9891037745789337e-02  9.4878156414991102e-02  -3.3834476446393474e-01  7.9813134518669793e-01  -5.1164394035623029e-01  -4.1373545235622995e+00  1.0794973485694509e+01  2.4935767411043162e+01  8.9558578256895913e+00  -3.9969011146729612e+00  -1.9763960285566767e-01  6.1182205877860352e-01  -2.7473992196658154e-01  7.9069740442758329e-02  -1.6887980403982979e-02  2.6839069040059662e-03  -2.6763705617102387e-04  -5.1980980403798874e-06  9.4553542485078591e-06  -2.4179684133300308e-06  3.6735284953690584e-07  -2.5360983528934282e-08  -4.3697215268131027e-09  1.9303849007970278e-09  -3.7789851164896763e-10  4.0890441530665085e-11  7.7852756802786388e-13  -1.4609810648655497e-12  3.3704167139153868e-13  0.0000000000000000e+00  0.0000000000000000e+00  6.7830963261240485e-11  3.8709621787318356e-10  -5.6376395491425304e-09  3.5651728127866227e-08  -1.2126215311097735e-07  -1.3376935328462056e-07  5.2312348392432880e-06  -4.1634093139173099e-05  1.9365043242247453e-04  -3.2708635249952250e-04  -3.6488204128017811e-03  4.5418662775328446e-02  -3.0985458117839021e-01  1.5142758034875297e+00  -5.2986262985534740e+00  1.0794973485694515e+01  4.4608164264127126e+00  -8.4915378716974089e+01  -7.9348676276165136e+01  6.9276566761864471e+00  8.6901283810296270e+00  -4.5296731696609722e+00  1.3230256993791216e+00  -2.7473992196658187e-01  4.0925659544606988e-02  -3.4204838812990942e-03  -2.5918588819810555e-04  1.6900197022718023e-04  -3.7127098114195288e-05  4.7761153362595195e-06  -1.4853627568484614e-07  -1.0382838361062536e-07  3.1552363791306653e-08  -5.0973969474283749e-09  3.7425479494182313e-10  5.7005427719547576e-11  -2.6188681346546287e-11  5.0508248275011454e-12  -4.5120229532401166e-13  0.0000000000000000e+00  0.0000000000000000e+00  6.2314745070129298e-11  -4.5833208768310899e-10  1.6637515406451124e-09  1.0729579364548016e-09  -6.4638676664089808e-08  5.1953854986434041e-07  -2.3090489863947104e-06  2.4555373592347756e-06  5.7112529702957913e-05  -5.8545692145272493e-04  3.2117671741105835e-03  -8.3285242903619935e-03  -3.7926022056654393e-02  6.5351091104675718e-01  -4.8968896880862740e+00  2.4935767411043187e+01  -8.4915378716974104e+01  1.2063074414259879e+02  4.4032885210941373e+02  1.0052005314160074e+02  -7.6441782691789143e+01  2.2827511047247427e+01  -4.5296731696609518e+00  6.1182205877860085e-01  -3.7049618998672776e-02  -7.3997117627323545e-03  2.9491930237814049e-03  -5.4486110307587477e-04  5.4326020186378808e-05  1.9832623008784415e-06  -2.1061498191543379e-06  4.8152513698077191e-07  -6.0927976151428401e-08  1.2572910153436424e-09  1.5049251777572957e-09  -4.2486033784850223e-10  6.3851963246220371e-11  -3.5018527502600962e-12  -1.0349395790488677e-12  0.0000000000000000e+00  0.0000000000000000e+00  -2.4231774497741480e-11  2.0924672122829590e-11  6.6709685291946742e-10  -6.3440163045934488e-09  3.1728333879205901e-08  -5.8208384855589414e-08  -5.6961833289575092e-07  6.8575575070369860e-06  -3.9685260209654364e-05  1.0827053688132090e-04  4.3078395531872431e-04  -7.5608716138384369e-03  5.1570158879239339e-02  -1.8860243331212959e-01  -1.8876412465925813e-01  8.9558578256895895e+00  -7.9348676276165136e+01  4.4032885210941379e+02  -1.4322231089604520e+03  -1.3581888378787949e+03  4.2191883948100167e+02  -7.6441782691789442e+01  8.6901283810296484e+00  -1.9763960285567420e-01  -1.7944745502673848e-01  4.9560055250734633e-02  -7.3173945893928172e-03  4.2694131885408448e-04  1.0225737596488942e-04  -3.8062077731245766e-05  6.6236420997481562e-06  -5.5817490709980741e-07  -5.4188909201761207e-08  3.0366091549276979e-08  -6.117259124541941