<?xml version="1.0"?>
<VTKFile type="UnstructuredGrid"  version="0.1"  >
<UnstructuredGrid>
<Piece  NumberOfPoints="1681" NumberOfCells="3200">
<Points>
<DataArray  type="Float64"  NumberOfComponents="3"  format="ascii">-2 -2 0  -1.9 -2 0  -1.8 -2 0  -1.7 -2 0  -1.6 -2 0  -1.5 -2 0  -1.4 -2 0  -1.3 -2 0  -1.2 -2 0  -1.1 -2 0  -1 -2 0  -0.8999999999999999 -2 0  -0.8 -2 0  -0.7 -2 0  -0.6000000000000001 -2 0  -0.5 -2 0  -0.3999999999999999 -2 0  -0.3 -2 0  -0.2 -2 0  -0.1000000000000001 -2 0  0 -2 0  0.1000000000000001 -2 0  0.2000000000000002 -2 0  0.2999999999999998 -2 0  0.3999999999999999 -2 0  0.5 -2 0  0.6000000000000001 -2 0  0.7000000000000002 -2 0  0.7999999999999998 -2 0  0.8999999999999999 -2 0  1 -2 0  1.1 -2 0  1.2 -2 0  1.3 -2 0  1.4 -2 0  1.5 -2 0  1.6 -2 0  1.7 -2 0  1.8 -2 0  1.9 -2 0  2 -2 0  -2 -1.9 0  -1.9 -1.9 0  -1.8 -1.9 0  -1.7 -1.9 0  -1.6 -1.9 0  -1.5 -1.9 0  -1.4 -1.9 0  -1.3 -1.9 0  -1.2 -1.9 0  -1.1 -1.9 0  -1 -1.9 0  -0.8999999999999999 -1.9 0  -0.8 -1.9 0  -0.7 -1.9 0  -0.6000000000000001 -1.9 0  -0.5 -1.9 0  -0.3999999999999999 -1.9 0  -0.3 -1.9 0  -0.2 -1.9 0  -0.1000000000000001 -1.9 0  0 -1.9 0  0.1000000000000001 -1.9 0  0.2000000000000002 -1.9 0  0.2999999999999998 -1.9 0  0.3999999999999999 -1.9 0  0.5 -1.9 0  0.6000000000000001 -1.9 0  0.7000000000000002 -1.9 0  0.7999999999999998 -1.9 0  0.8999999999999999 -1.9 0  1 -1.9 0  1.1 -1.9 0  1.2 -1.9 0  1.3 -1.9 0  1.4 -1.9 0  1.5 -1.9 0  1.6 -1.9 0  1.7 -1.9 0  1.8 -1.9 0  1.9 -1.9 0  2 -1.9 0  -2 -1.8 0  -1.9 -1.8 0  -1.8 -1.8 0  -1.7 -1.8 0  -1.6 -1.8 0  -1.5 -1.8 0  -1.4 -1.8 0  -1.3 -1.8 0  -1.2 -1.8 0  -1.1 -1.8 0  -1 -1.8 0  -0.8999999999999999 -1.8 0  -0.8 -1.8 0  -0.7 -1.8 0  -0.6000000000000001 -1.8 0  -0.5 -1.8 0  -0.3999999999999999 -1.8 0  -0.3 -1.8 0  -0.2 -1.8 0  -0.1000000000000001 -1.8 0  0 -1.8 0  0.1000000000000001 -1.8 0  0.2000000000000002 -1.8 0  0.2999999999999998 -1.8 0  0.3999999999999999 -1.8 0  0.5 -1.8 0  0.6000000000000001 -1.8 0  0.7000000000000002 -1.8 0  0.7999999999999998 -1.8 0  0.8999999999999999 -1.8 0  1 -1.8 0  1.1 -1.8 0  1.2 -1.8 0  1.3 -1.8 0  1.4 -1.8 0  1.5 -1.8 0  1.6 -1.8 0  1.7 -1.8 0  1.8 -1.8 0  1.9 -1.8 0  2 -1.8 0  -2 -1.7 0  -1.9 -1.7 0  -1.8 -1.7 0  -1.7 -1.7 0  -1.6 -1.7 0  -1.5 -1.7 0  -1.4 -1.7 0  -1.3 -1.7 0  -1.2 -1.7 0  -1.1 -1.7 0  -1 -1.7 0  -0.8999999999999999 -1.7 0  -0.8 -1.7 0  -0.7 -1.7 0  -0.6000000000000001 -1.7 0  -0.5 -1.7 0  -0.3999999999999999 -1.7 0  -0.3 -1.7 0  -0.2 -1.7 0  -0.1000000000000001 -1.7 0  0 -1.7 0  0.1000000000000001 -1.7 0  0.2000000000000002 -1.7 0  0.2999999999999998 -1.7 0  0.3999999999999999 -1.7 0  0.5 -1.7 0  0.6000000000000001 -1.7 0  0.7000000000000002 -1.7 0  0.7999999999999998 -1.7 0  0.8999999999999999 -1.7 0  1 -1.7 0  1.1 -1.7 0  1.2 -1.7 0  1.3 -1.7 0  1.4 -1.7 0  1.5 -1.7 0  1.6 -1.7 0  1.7 -1.7 0  1.8 -1.7 0  1.9 -1.7 0  2 -1.7 0  -2 -1.6 0  -1.9 -1.6 0  -1.8 -1.6 0  -1.7 -1.6 0  -1.6 -1.6 0  -1.5 -1.6 0  -1.4 -1.6 0  -1.3 -1.6 0  -1.2 -1.6 0  -1.1 -1.6 0  -1 -1.6 0  -0.8999999999999999 -1.6 0  -0.8 -1.6 0  -0.7 -1.6 0  -0.6000000000000001 -1.6 0  -0.5 -1.6 0  -0.3999999999999999 -1.6 0  -0.3 -1.6 0  -0.2 -1.6 0  -0.1000000000000001 -1.6 0  0 -1.6 0  0.1000000000000001 -1.6 0  0.2000000000000002 -1.6 0  0.2999999999999998 -1.6 0  0.3999999999999999 -1.6 0  0.5 -1.6 0  0.6000000000000001 -1.6 0  0.7000000000000002 -1.6 0  0.7999999999999998 -1.6 0  0.8999999999999999 -1.6 0  1 -1.6 0  1.1 -1.6 0  1.2 -1.6 0  1.3 -1.6 0  1.4 -1.6 0  1.5 -1.6 0  1.6 -1.6 0  1.7 -1.6 0  1.8 -1.6 0  1.9 -1.6 0  2 -1.6 0  -2 -1.5 0  -1.9 -1.5 0  -1.8 -1.5 0  -1.7 -1.5 0  -1.6 -1.5 0  -1.5 -1.5 0  -1.4 -1.5 0  -1.3 -1.5 0  -1.2 -1.5 0  -1.1 -1.5 0  -1 -1.5 0  -0.8999999999999999 -1.5 0  -0.8 -1.5 0  -0.7 -1.5 0  -0.6000000000000001 -1.5 0  -0.5 -1.5 0  -0.3999999999999999 -1.5 0  -0.3 -1.5 0  -0.2 -1.5 0  -0.1000000000000001 -1.5 0  0 -1.5 0  0.1000000000000001 -1.5 0  0.2000000000000002 -1.5 0  0.2999999999999998 -1.5 0  0.3999999999999999 -1.5 0  0.5 -1.5 0  0.6000000000000001 -1.5 0  0.7000000000000002 -1.5 0  0.7999999999999998 -1.5 0  0.8999999999999999 -1.5 0  1 -1.5 0  1.1 -1.5 0  1.2 -1.5 0  1.3 -1.5 0  1.4 -1.5 0  1.5 -1.5 0  1.6 -1.5 0  1.7 -1.5 0  1.8 -1.5 0  1.9 -1.5 0  2 -1.5 0  -2 -1.4 0  -1.9 -1.4 0  -1.8 -1.4 0  -1.7 -1.4 0  -1.6 -1.4 0  -1.5 -1.4 0  -1.4 -1.4 0  -1.3 -1.4 0  -1.2 -1.4 0  -1.1 -1.4 0  -1 -1.4 0  -0.8999999999999999 -1.4 0  -0.8 -1.4 0  -0.7 -1.4 0  -0.6000000000000001 -1.4 0  -0.5 -1.4 0  -0.3999999999999999 -1.4 0  -0.3 -1.4 0  -0.2 -1.4 0  -0.1000000000000001 -1.4 0  0 -1.4 0  0.1000000000000001 -1.4 0  0.2000000000000002 -1.4 0  0.2999999999999998 -1.4 0  0.3999999999999999 -1.4 0  0.5 -1.4 0  0.6000000000000001 -1.4 0  0.7000000000000002 -1.4 0  0.7999999999999998 -1.4 0  0.8999999999999999 -1.4 0  1 -1.4 0  1.1 -1.4 0  1.2 -1.4 0  1.3 -1.4 0  1.4 -1.4 0  1.5 -1.4 0  1.6 -1.4 0  1.7 -1.4 0  1.8 -1.4 0  1.9 -1.4 0  2 -1.4 0  -2 -1.3 0  -1.9 -1.3 0  -1.8 -1.3 0  -1.7 -1.3 0  -1.6 -1.3 0  -1.5 -1.3 0  -1.4 -1.3 0  -1.3 -1.3 0  -1.2 -1.3 0  -1.1 -1.3 0  -1 -1.3 0  -0.8999999999999999 -1.3 0  -0.8 -1.3 0  -0.7 -1.3 0  -0.6000000000000001 -1.3 0  -0.5 -1.3 0  -0.3999999999999999 -1.3 0  -0.3 -1.3 0  -0.2 -1.3 0  -0.1000000000000001 -1.3 0  0 -1.3 0  0.1000000000000001 -1.3 0  0.2000000000000002 -1.3 0  0.2999999999999998 -1.3 0  0.3999999999999999 -1.3 0  0.5 -1.3 0  0.6000000000000001 -1.3 0  0.7000000000000002 -1.3 0  0.7999999999999998 -1.3 0  0.8999999999999999 -1.3 0  1 -1.3 0  1.1 -1.3 0  1.2 -1.3 0  1.3 -1.3 0  1.4 -1.3 0  1.5 -1.3 0  1.6 -1.3 0  1.7 -1.3 0  1.8 -1.3 0  1.9 -1.3 0  2 -1.3 0  -2 -1.2 0  -1.9 -1.2 0  -1.8 -1.2 0  -1.7 -1.2 0  -1.6 -1.2 0  -1.5 -1.2 0  -1.4 -1.2 0  -1.3 -1.2 0  -1.2 -1.2 0  -1.1 -1.2 0  -1 -1.2 0  -0.8999999999999999 -1.2 0  -0.8 -1.2 0  -0.7 -1.2 0  -0.6000000000000001 -1.2 0  -0.5 -1.2 0  -0.3999999999999999 -1.2 0  -0.3 -1.2 0  -0.2 -1.2 0  -0.1000000000000001 -1.2 0  0 -1.2 0  0.1000000000000001 -1.2 0  0.2000000000000002 -1.2 0  0.2999999999999998 -1.2 0  0.3999999999999999 -1.2 0  0.5 -1.2 0  0.6000000000000001 -1.2 0  0.7000000000000002 -1.2 0  0.7999999999999998 -1.2 0  0.8999999999999999 -1.2 0  1 -1.2 0  1.1 -1.2 0  1.2 -1.2 0  1.3 -1.2 0  1.4 -1.2 0  1.5 -1.2 0  1.6 -1.2 0  1.7 -1.2 0  1.8 -1.2 0  1.9 -1.2 0  2 -1.2 0  -2 -1.1 0  -1.9 -1.1 0  -1.8 -1.1 0  -1.7 -1.1 0  -1.6 -1.1 0  -1.5 -1.1 0  -1.4 -1.1 0  -1.3 -1.1 0  -1.2 -1.1 0  -1.1 -1.1 0  -1 -1.1 0  -0.8999999999999999 -1.1 0  -0.8 -1.1 0  -0.7 -1.1 0  -0.6000000000000001 -1.1 0  -0.5 -1.1 0  -0.3999999999999999 -1.1 0  -0.3 -1.1 0  -0.2 -1.1 0  -0.1000000000000001 -1.1 0  0 -1.1 0  0.1000000000000001 -1.1 0  0.2000000000000002 -1.1 0  0.2999999999999998 -1.1 0  0.3999999999999999 -1.1 0  0.5 -1.1 0  0.6000000000000001 -1.1 0  0.7000000000000002 -1.1 0  0.7999999999999998 -1.1 0  0.8999999999999999 -1.1 0  1 -1.1 0  1.1 -1.1 0  1.2 -1.1 0  1.3 -1.1 0  1.4 -1.1 0  1.5 -1.1 0  1.6 -1.1 0  1.7 -1.1 0  1.8 -1.1 0  1.9 -1.1 0  2 -1.1 0  -2 -1 0  -1.9 -1 0  -1.8 -1 0  -1.7 -1 0  -1.6 -1 0  -1.5 -1 0  -1.4 -1 0  -1.3 -1 0  -1.2 -1 0  -1.1 -1 0  -1 -1 0  -0.8999999999999999 -1 0  -0.8 -1 0  -0.7 -1 0  -0.6000000000000001 -1 0  -0.5 -1 0  -0.3999999999999999 -1 0  -0.3 -1 0  -0.2 -1 0  -0.1000000000000001 -1 0  0 -1 0  0.1000000000000001 -1 0  0.2000000000000002 -1 0  0.2999999999999998 -1 0  0.3999999999999999 -1 0  0.5 -1 0  0.6000000000000001 -1 0  0.7000000000000002 -1 0  0.7999999999999998 -1 0  0.8999999999999999 -1 0  1 -1 0  1.1 -1 0  1.2 -1 0  1.3 -1 0  1.4 -1 0  1.5 -1 0  1.6 -1 0  1.7 -1 0  1.8 -1 0  1.9 -1 0  2 -1 0  -2 -0.8999999999999999 0  -1.9 -0.8999999999999999 0  -1.8 -0.8999999999999999 0  -1.7 -0.8999999999999999 0  -1.6 -0.8999999999999999 0  -1.5 -0.8999999999999999 0  -1.4 -0.8999999999999999 0  -1.3 -0.8999999999999999 0  -1.2 -0.8999999999999999 0  -1.1 -0.8999999999999999 0  -1 -0.8999999999999999 0  -0.8999999999999999 -0.8999999999999999 0  -0.8 -0.8999999999999999 0  -0.7 -0.8999999999999999 0  -0.6000000000000001 -0.8999999999999999 0  -0.5 -0.8999999999999999 0  -0.3999999999999999 -0.8999999999999999 0  -0.3 -0.8999999999999999 0  -0.2 -0.8999999999999999 0  -0.1000000000000001 -0.8999999999999999 0  0 -0.8999999999999999 0  0.1000000000000001 -0.8999999999999999 0  0.2000000000000002 -0.8999999999999999 0  0.2999999999999998 -0.8999999999999999 0  0.3999999999999999 -0.8999999999999999 0  0.5 -0.8999999999999999 0  0.6000000000000001 -0.8999999999999999 0  0.7000000000000002 -0.8999999999999999 0  0.7999999999999998 -0.8999999999999999 0  0.8999999999999999 -0.8999999999999999 0  1 -0.8999999999999999 0  1.1 -0.8999999999999999 0  1.2 -0.8999999999999999 0  1.3 -0.8999999999999999 0  1.4 -0.8999999999999999 0  1.5 -0.8999999999999999 0  1.6 -0.8999999999999999 0  1.7 -0.8999999999999999 0  1.8 -0.8999999999999999 0  1.9 -0.8999999999999999 0  2 -0.8999999999999999 0  -2 -0.8 0  -1.9 -0.8 0  -1.8 -0.8 0  -1.7 -0.8 0  -1.6 -0.8 0  -1.5 -0.8 0  -1.4 -0.8 0  -1.3 -0.8 0  -1.2 -0.8 0  -1.1 -0.8 0  -1 -0.8 0  -0.8999999999999999 -0.8 0  -0.8 -0.8 0  -0.7 -0.8 0  -0.6000000000000001 -0.8 0  -0.5 -0.8 0  -0.3999999999999999 -0.8 0  -0.3 -0.8 0  -0.2 -0.8 0  -0.1000000000000001 -0.8 0  0 -0.8 0  0.1000000000000001 -0.8 0  0.2000000000000002 -0.8 0  0.2999999999999998 -0.8 0  0.3999999999999999 -0.8 0  0.5 -0.8 0  0.6000000000000001 -0.8 0  0.7000000000000002 -0.8 0  0.7999999999999998 -0.8 0  0.8999999999999999 -0.8 0  1 -0.8 0  1.1 -0.8 0  1.2 -0.8 0  1.3 -0.8 0  1.4 -0.8 0  1.5 -0.8 0  1.6 -0.8 0  1.7 -0.8 0  1.8 -0.8 0  1.9 -0.8 0  2 -0.8 0  -2 -0.7 0  -1.9 -0.7 0  -1.8 -0.7 0  -1.7 -0.7 0  -1.6 -0.7 0  -1.5 -0.7 0  -1.4 -0.7 0  -1.3 -0.7 0  -1.2 -0.7 0  -1.1 -0.7 0  -1 -0.7 0  -0.8999999999999999 -0.7 0  -0.8 -0.7 0  -0.7 -0.7 0  -0.6000000000000001 -0.7 0  -0.5 -0.7 0  -0.3999999999999999 -0.7 0  -0.3 -0.7 0  -0.2 -0.7 0  -0.1000000000000001 -0.7 0  0 -0.7 0  0.1000000000000001 -0.7 0  0.2000000000000002 -0.7 0  0.2999999999999998 -0.7 0  0.3999999999999999 -0.7 0  0.5 -0.7 0  0.600000000000000
[...]
<PointData  Scalars="f_1726"> 
<DataArray  type="Float64"  Name="f_1726"  format="ascii">0.0000000000000000e+00  0.0000000000000000e+00  0.0000000000000000e+00  0.0000000000000000e+00  0.0000000000000000e+00  0.0000000000000000e+00  0.0000000000000000e+00  0.0000000000000000e+00  0.0000000000000000e+00  0.0000000000000000e+00  0.0000000000000000e+00  0.0000000000000000e+00  0.0000000000000000e+00  0.0000000000000000e+00  0.0000000000000000e+00  0.0000000000000000e+00  0.0000000000000000e+00  0.0000000000000000e+00  0.0000000000000000e+00  0.0000000000000000e+00  0.0000000000000000e+00  0.0000000000000000e+00  0.0000000000000000e+00  0.0000000000000000e+00  0.0000000000000000e+00  0.0000000000000000e+00  0.0000000000000000e+00  0.0000000000000000e+00  0.0000000000000000e+00  0.0000000000000000e+00  0.0000000000000000e+00  0.0000000000000000e+00  0.0000000000000000e+00  0.0000000000000000e+00  0.0000000000000000e+00  0.0000000000000000e+00  0.0000000000000000e+00  0.0000000000000000e+00  0.0000000000000000e+00  0.0000000000000000e+00  0.0000000000000000e+00  0.0000000000000000e+00  -2.6941039021829127e-13  -3.1395988298570431e-13  2.0631196949621304e-12  -4.9715335040065296e-13  -1.0448980636633953e-11  5.6296055693556702e-12  5.1411968894082869e-11  7.0733940780284431e-12  -2.1340174769387579e-10  -4.2581470127439840e-10  -3.7533600056672872e-10  -1.2936759753870930e-10  3.5011547817602144e-11  3.5470356887999339e-11  -3.3667894208694002e-12  -6.7985762843839817e-12  1.1390227986339826e-12  1.0463940347210121e-12  -4.0690183770479472e-13  -7.4339687816687312e-14  8.8590652614062342e-14  -1.7378785720693313e-14  -7.5766239555041173e-15  5.6596298997869603e-15  -1.2424938956674285e-15  -2.8228406632619724e-16  3.1180280967282146e-16  -1.1184793338052803e-16  1.3127553983605745e-17  8.4040016589086116e-18  -6.2636796573648777e-18  2.3473363626154438e-18  -5.1910420742614139e-19  4.2979145629543904e-21  6.0864499187113633e-20  -3.6612320394367307e-20  1.4896429078135846e-20  -4.9380223734957357e-21  1.5653208177421113e-21  0.0000000000000000e+00  0.0000000000000000e+00  -3.1395988298570446e-13  2.2578737611282127e-12  -2.0086010900233782e-12  -9.8911696394608231e-12  2.0771298168150657e-11  3.8821123620707359e-11  -1.1184377460626839e-10  -2.1847469792166947e-10  3.2576137066228440e-10  1.3962092343245837e-09  1.8227386303172620e-09  1.0675266819093554e-09  8.6343534651480116e-11  -2.0694357782447235e-10  -4.7038729309648732e-11  3.8420691500573071e-11  6.5001497284425264e-12  -7.6963479820561455e-12  3.5136871800054030e-13  1.2065188737956266e-12  -4.0660256860561944e-13  -5.8803383119352209e-14  8.4813842437613263e-14  -2.4532907410520411e-14  -2.2854704828550438e-15  4.6049435513971180e-15  -1.8364464055241034e-15  2.5542785787623482e-16  1.2156187740215026e-16  -9.7915037689782113e-17  3.6887138310114166e-17  -7.8756025386159687e-18  -1.4706372790174267e-19  1.0384843166496327e-18  -5.8914050728356668e-19  2.3032053069639402e-19  -7.2831614379265984e-20  1.9784352474523803e-20  -4.9380223734957409e-21  0.0000000000000000e+00  0.0000000000000000e+00  2.0631196949621312e-12  -2.0086010900233778e-12  -9.0430087402487300e-12  2.6781387929839397e-11  1.4775314790698990e-11  -1.5888179092993341e-10  9.8586260226395413e-12  7.9368578502371787e-10  3.0141671048350450e-10  -3.2285099967479693e-09  -6.8707488102410280e-09  -6.0904672885306333e-09  -1.9764971532509334e-09  6.4942059177964668e-10  5.2901326707897432e-10  -9.4003217107128847e-11  -9.4667680779100144e-11  2.7937844974406524e-11  1.1201942119646106e-11  -7.3728254273546904e-12  3.0033332687872927e-13  1.0722071216190847e-12  -4.3976236936210092e-13  1.3073095334553726e-14  5.9494753034463014e-14  -2.8847116965996245e-14  5.3140177441976266e-15  1.3497298638842110e-15  -1.4123287801856571e-15  5.7232699751449919e-16  -1.3089213776124172e-16  1.5047758007873126e-18  1.5087946050447828e-17  -8.9470782602804671e-18  3.5521952330061325e-18  -1.1341666521406227e-18  3.0734241432284331e-19  -7.2831614379265671e-20  1.4896429078135797e-20  0.0000000000000000e+00  0.0000000000000000e+00  -4.9715335040065245e-13  -9.8911696394608263e-12  2.6781387929839397e-11  5.0261332599510361e-12  -1.6273474462140598e-10  1.8530817709013172e-10  7.1028491804459140e-10  -1.2954036982854052e-09  -3.5789882618289918e-09  3.8912139995668513e-09  2.0676171409325420e-08  2.7868238712617433e-08  1.5965057327386446e-08  7.3659235565805918e-10  -3.1704975012546996e-09  -4.4836232648377984e-10  5.9866658522811010e-10  1.8017192928404992e-11  -1.0652921407009851e-10  2.2184903240716619e-11  1.0923436263204238e-11  -7.1342877614905668e-12  9.5723956577730617e-13  6.8663546720191200e-13  -4.3820108104492278e-13  1.0299777480404980e-13  1.1590681854667906e-14  -1.9915875042507410e-14  8.8620951125533324e-15  -2.1905181589535676e-15  9.2501388961651709e-17  2.1685122921914144e-16  -1.3647265813157216e-16  5.5277536299273086e-17  -1.7804294361577080e-17  4.8425202451960874e-18  -1.1341666521406285e-18  2.3032053069639440e-19  -3.6612320394367463e-20  0.0000000000000000e+00  0.0000000000000000e+00  -1.0448980636633966e-11  2.0771298168150673e-11  1.4775314790699006e-11  -1.6273474462140598e-10  2.4203258517098726e-10  5.3542730515074857e-10  -2.0452341755969850e-09  -1.1369549688564283e-09  1.1033625359272629e-08  7.5967955774632354e-09  -4.4937151054197932e-08  -1.0386266529063646e-07  -9.2570325383795885e-08  -2.7651951830366141e-08  1.1250284206704730e-08  7.0485224380298602e-09  -2.0362434847475028e-09  -1.0854176743793840e-09  5.3278464455681866e-10  5.7357922774377136e-11  -1.0272148990675609e-10  2.5270820364176581e-11  6.2845155581096091e-12  -6.3457011318012835e-12  1.8767351752687190e-12  2.4630245460503042e-14  -2.7193868226037198e-13  1.3594862582742177e-13  -3.6447461162823656e-14  2.5814456974255964e-15  3.0731817924200581e-15  -2.0779995411364665e-15  8.6061466841053012e-16  -2.7968854661557563e-16  7.6238731845936283e-17  -1.7804294361577052e-17  3.5521952330061425e-18  -5.8914050728356572e-19  6.0864499187113609e-20  0.0000000000000000e+00  0.0000000000000000e+00  5.6296055693556969e-12  3.8821123620707385e-11  -1.5888179092993352e-10  1.8530817709013172e-10  5.3542730515074847e-10  -2.2092891219333173e-09  5.9828669630992939e-10  1.1645692345434025e-08  -1.2510639944542781e-08  -5.6889489530631030e-08  4.1381346516963792e-08  3.0430625168540208e-07  4.2613633662814415e-07  2.3739297910672148e-07  1.1596434977244785e-09  -4.7652476806700469e-08  -2.2462653605978460e-09  8.7241316445061814e-09  -9.7743971535286383e-10  -1.2299913970190047e-09  5.0990976564528880e-10  2.1112528292995513e-11  -8.5595885089337642e-11  3.2415173048309236e-11  -2.1467161105762349e-12  -3.5334463042233911e-12  2.0583464541453078e-12  -6.0233356643983738e-13  5.9120245439884433e-14  4.2657297644021637e-14  -3.1540267892022530e-14  1.3398636325711417e-14  -4.3979496924947983e-15  1.2015341253354677e-15  -2.7968854661557568e-16  5.5277536299273018e-17  -8.9470782602804948e-18  1.0384843166496329e-18  4.2979145629538367e-21  0.0000000000000000e+00  0.0000000000000000e+00  5.1411968894082889e-11  -1.1184377460626854e-10  9.8586260226397933e-12  7.1028491804459151e-10  -2.0452341755969846e-09  5.9828669630992949e-10  1.1079411678227222e-08  -2.2113405190914527e-08  -3.5118570972695678e-08  1.4495095194411967e-07  1.6115415009700584e-07  -6.1357538462293376e-07  -1.5749943534950549e-06  -1.4120022302294846e-06  -3.7828725087337791e-07  1.9253250405994454e-07  8.7843301354254597e-08  -3.8773729757264438e-08  -9.5650752472637096e-09  8.5593545769020299e-09  -9.0994436827026576e-10  -1.0231073034276073e-09  5.2982974118587818e-10  -7.3376702960163317e-11  -4.2224319480640238e-11  3.0605485562974933e-11  -9.8775375608659020e-12  1.2349878855460245e-12  5.7446899424230292e-13  -4.7675943427466826e-13  2.0858487027991006e-13  -6.9237572659048642e-14  1.8963339985387434e-14  -4.3979496924948078e-15  8.6061466841053199e-16  -1.3647265813157244e-16  1.5087946050447926e-17  -1.4706372790175266e-19  -5.1910420742613976e-19  0.0000000000000000e+00  0.0000000000000000e+00  7.0733940780284293e-12  -2.1847469792166947e-10  7.9368578502371828e-10  -1.2954036982854068e-09  -1.1369549688564291e-09  1.1645692345434025e-08  -2.2113405190914530e-08  -2.3857380469284286e-08  1.6989907506785603e-07  -6.8539240412759380e-08  -8.7517782965896076e-07  3.3397437928314170e-07  4.4659927926320011e-06  6.5541042227288303e-06  3.5222481828331810e-06  -1.5709496091817821e-07  -6.9912292271790218e-07  4.1233573881208096e-08  1.1515263779133205e-07  -3.1627869340000612e-08  -9.3729163533105435e-09  8.0858074655981376e-09  -1.7434942744708812e-09  -4.2586360338102049e-10  4.4332902557418619e-10  -1.6046109713122012e-10  2.4454652927810941e-11  7.3811075311597523e-12  -7.1679065498404151e-12  3.2466244392122403e-12  -1.0915180410160375e-12  2.9978695260945285e-13  -6.9237572659048377e-14  1.3398636325711381e-14  -2.0779995411364594e-15  2.1685122921914020e-16  1.5047758007874667e-18  -7.8756025386159564e-18  2.3473363626154388e-18  0.0000000000000000e+00  0.0000000000000000e+00  -2.1340174769387592e-10  3.2576137066228456e-10  3.0141671048350408e-10  -3.5789882618289931e-09  1.1033625359272642e-08  -1.2510639944542787e-08  -3.5118570972695692e-08  1.6989907506785614e-07  -1.5177644276747369e-07  -7.4675604864081760e-07  1.7224500580479515e-06  3.1265691989638508e-06  -8.1257718653043712e-06  -2.3989993518001135e-05  -2.1644781360022939e-05  -4.9868790800965329e-06  3.2517930881362963e-06  9.5903803059364658e-07  -6.6639796893976540e-07  -1.9593794069241430e-08  1.1122471212075596e-07  -3.5366631196382107e-08  -2.4942326674269601e-09  6.1686175552926566e-09  -2.5747678238267505e-09  4.6742040495118235e-10  8.7410951978038812e-11  -1.0698778355377702e-10  5.0517227281720707e-11  -1.7235245199467582e-11  4.7484757856394979e-12  -1.0915180410160427e-12  2.0858487027991049e-13  -3.1540267892022707e-14  3.0731817924200888e-15  9.2501388961645497e-17  -1.3089213776124110e-16  3.6887138310113962e-17  -6.2636796573648577e-18  0.0000000000000000e+00  0.0000000000000000e+00  -4.2581470127439829e-10  1.3962092343245835e-09  -3.2285099967479701e-09  3.8912139995668563e-09  7.5967955774632288e-09  -5.6889489530631077e-08  1.4495095194411980e-07  -6.8539240412759512e-08  -7.4675604864081791e-07  2.0718317389377658e-06  9.3350081222262516e-07  -1.2837847163740792e-05  8.0553085962857871e-08  6.5223121523608717e-05  1.0160629519215475e-04  5.2044837047027853e-05  -5.4924594124387623e-06  -9.8310380553561817e-06  1.8180872568948809e-06  1.2506183887558540e-06  -6.3914136280651392e-07  3.3303094453659148e-08  8.0200899343760138e-08  -4.0602713226298935e-08  8.7062048373855026e-09  8.7143801669330302e-10  -1.5808533501573941e-09  7.8559316458283566e-10  -2.7266479541123742e-10  7.5387520297602331e-11  -1.7235245199467559e-11  3.2466244392122492e-12  -4.7675943427466786e-13  4.2657297644021669e-14  2.5814456974256031e-15  -2.1905181589535660e-15  5.7232699751450086e-16  -9.7915037689782076e-17  8.4040016589086255e-18  0.0000000000000000e+00  0.0000000000000000e+00  -3.7533600056672825e-10  1.8227386303172607e-09  -6.8707488102410255e-09  2.0676171409325414e-08  -4.4937151054197945e-08  4.1381346516963831e-08  1.6115415009700597e-07  -8.7517782965896140e-07  1.7224500580479530e-06  9.3350081222262548e-07  -1.2890118640880359e-05  1.6309404565244721e-05  5.7008647751523427e-05  -1.0184965982376088e-04  -3.6761151094744549e-04  -3.3401184933325894e-04  -6.1271275513157322e-05  5.3932243614570619e-05  7.2337576057117672e-06  -1.0133063813856845e-05  1.7171137921765247e-06  9.1224674656351734e-07  -6.2344111252439988e-07  1.5877504225810209e-07  4.7475965376722827e-09  -2.3018898059204648e-08  1.2204909543678328e-08  -4.3234690286124684e-09  1.2002145897778291e-09  -2.7266479541123752e-10  5.0517227281720707e-11  -7.1679065498404441e-12  5.7446899424230625e-13  5.9120245439883726e-14  -3.6447461162823518e-14  8.8620951125532929e-15  -1.4123287801856551e-15  1.2156187740214930e-16  1.3127553983605878e-17  0.0000000000000000e+00  0.0000000000000000e+00  -1.2936759753870915e-10  1.0675266819093542e-09  -6.0904672885306299e-09  2.7868238712617423e-08  -1.0386266529063642e-07  3.0430625168540224e-07  -6.1357538462293408e-07  3.3397437928314191e-07  3.1265691989638533e-06  -1.2837847163740804e-05  1.6309404565244721e-05  4.3364457910963508e-05  -1.7315284241365005e-04  -8.5200908826965871e-05  9.4390259601975443e-04  1.5932013648815185e-03  7.6267370972348913e-04  -1.3985322616109580e-04  -1.2696274284855320e-04  4.4465553025616270e-05  7.1692317560164963e-06  -9.1493499230153395e-06  2.8378941982800489e-06  -8.7286865656390983e-08  -3.2771855594001104e-07  1.8930594311236061e-07  -6.8746539309145210e-08  1.9174182530701454e-08  -4.3234690286124758e-09  7.8559316458283763e-10  -1.0698778355377734e-10  7.3811075311598315e-12  1.2349878855460156e-12  -6.0233356643983688e-13  1.3594862582742164e-13  -1.9915875042507385e-14  1.3497298638842134e-15  2.5542785787623447e-16  -1.1184793338052798e-16  0.0000000000000000e+00  0.0000000000000000e+00  3.5011547817602208e-11  8.6343534651479534e-11  -1.9764971532509293e-09  1.5965057327386423e-08  -9.2570325383795819e-08  4.2613633662814410e-07  -1.5749943534950553e-06  4.4659927926320028e-06  -8.1257718653043763e-06  8.0553085962858294e-08  5.7008647751523461e-05  -1.7315284241365013e-04  5.1775905651690169e-05  9.7844633159369803e-04  -1.1335051183452513e-03  -5.6815115397761268e-03  -5.2031021712622798e-03  -6.3685670536112312e-04  8.6597010964453117e-04  -3.1401965672746058e-05  -1.2287425776071775e-04  4.9523078106998015e-05  -4.3522695469450424e-06  -4.4941822153404781e-06  2.9281113151615817e-06  -1.0969691293858025e-06  3.0765956062801996e-07  -6.8746539309144919e-08  1.2204909543678296e-08  -1.5808533501573881e-09  8.7410951978038166e-11  2.4454652927811054e-11  -9.8775375608658778e-12  2.0583464541453021e-12  -2.7193868226037042e-13  1.1590681854667663e-14  5.3140177441976716e-15  -1.8364464055241041e-15  3.1180280967282136e-16  0.0000000000000000e+00  0.0000000000000000e+00  3.5470356887999306e-11  -2.0694357782447230e-10  6.4942059177964730e-10  7.3659235565805359e-10  -2.7651951830366104e-08  2.3739297910672132e-07  -1.4120022302294843e-06  6.5541042227288303e-06  -2.3989993518001142e-05  6.5223121523608758e-05  -1.0184965982376093e-04  -8.5200908826966020e-05  9.7844633159369933e-04  -1.9225023695086025e-03  -2.8181891906415269e-03  1.3402283481819988e-02  2.5427836797029042e-02  1.0973805929476822e-02  -3.1670266953604353e-03  -1.3165031788978647e-03  8.3221629353454096e-04  -1.2425653412308755e-04  -5.7437030757691593e-05  4.5068372998040396e-05  -1.7583719103978811e-05  4.9647569513732320e-06  -1.0969691293858076e-06  1.8930594311236100e-07  -2.3018898059204797e-08  8.7143801669333207e-10  4.6742040495117667e-10  -1.6046109713121973e-10  3.0605485562974765e-11  -3.5334463042233741e-12  2.4630245460501111e-14  1.0299777480404977e-13  -2.8847116965996289e-14  4.6049435513971046e-15  -2.8228406632619566e-16  0.0000000000000000e+00  0.0000000000000000e+00  -3.3667894208694317e-12  -4.7038729309648571e-11  5.2901326707897380e-10  -3.1704975012546996e-09  1.1250284206704742e-08  1.1596434977243482e-09  -3.7828725087337717e-07  3.5222481828331797e-06  -2.1644781360022929e-05  1.0160629519215475e-04  -3.6761151094744570e-04  9.4390259601975508e-04  -1.1335051183452532e-03  -2.8181891906415304e-03  1.5283039742293725e-02  -8.5915647490396128e-03  -8.8974943968437636e-02  -8.2228951631490382e-02  -3.1697418290083899e-03  1.2886134980688335e-02  -3.0132955895836094e-03  -6.2214007720432060e-04  6.8722685082487234e-04  -2.8358427741821901e-04  8.0740060009310946e-05  -1.7583719103978794e-05  2.9281113151615894e-06  -3.2771855594001088e-07  4.7475965376722909e-09  8.7062048373855042e-09  -2.5747678238267480e-09  4.4332902557418733e-10  -4.2224319480640212e-11  -2.1467161105762333e-12  1.8767351752687186e-12  -4.3820108104492223e-13  5.9494753034463127e-14  -2.2854704828550355e-15  -1.2424938956674285e-15  0.0000000000000000e+00  0.0000000000000000e+00  -6.7985762843839842e-12  3.8420691500573142e-11  -9.4003217107129429e-11  -4.4836232648377638e-10  7.0485224380298470e-09  -4.7652476806700449e-08  1.9253250405994470e-07  -1.5709496091818060e-07  -4.9868790800965194e-06  5.2044837047027786e-05  -3.3401184933325878e-04  1.5932013648815176e-03  -5.6815115397761268e-03  1.3402283481819996e-02  -8.5915647490396024e-03  -6.9474778210347587e-02  1.8127003244079529e-01  4.1872334133344241e-01  1.5038745956618321e-01  -6.7116273669365636e-02  -3.3187795476023688e-03  1.0273763487215858e-02  -4.6134540889481114e-03  1.3277452171733557e-03  -2.8358427741821912e-04  4.5068372998040403e-05  -4.4941822153405010e-06  -8.7286865656387529e-08  1.5877504225810146e-07  -4.0602713226298782e-08  6.1686175552926235e-09  -4.2586360338101682e-10  -7.3376702960164015e-11  3.2415173048309379e-11  -6.3457011318012981e-12  6.8663546720191280e-13  1.3073095334553693e-14  -2.4532907410520386e-14  5.6596298997869611e-15  0.0000000000000000e+00  0.0000000000000000e+00  1.1390227986339885e-12  6.5001497284425054e-12  -9.4667680779100119e-11  5.9866658522811072e-10  -2.0362434847475098e-09  -2.2462653605978030e-09  8.7843301354254425e-08  -6.9912292271790176e-07  3.2517930881362972e-06  -5.4924594124387733e-06  -6.1271275513157214e-05  7.6267370972348892e-04  -5.2031021712622789e-03  2.5427836797029053e-02  -8.8974943968437692e-02  1.8127003244079534e-01  7.4906375583028234e-02  -1.4259056286841831e+00  -1.3324291293328023e+00  1.1632974847924957e-01  1.4592531011136334e-01  -7.6062623358802775e-02  2.2216350208203388e-02  -4.6134540889481235e-03  6.8722685082487473e-04  -5.7437030757691986e-05  -4.3522695469449924e-06  2.8378941982800370e-06  -6.2344111252439904e-07  8.0200899343760045e-08  -2.4942326674269543e-09  -1.7434942744708859e-09  5.2982974118587777e-10  -8.5595885089337642e-11  6.2845155581095856e-12  9.5723956577731020e-13  -4.3976236936210289e-13  8.4813842437613301e-14  -7.5766239555041331e-15  0.0000000000000000e+00  0.0000000000000000e+00  1.0463940347210113e-12  -7.6963479820561488e-12  2.7937844974406563e-11  1.8017192928404637e-11  -1.0854176743793832e-09  8.7241316445061847e-09  -3.8773729757264511e-08  4.1233573881208646e-08  9.5903803059364404e-07  -9.8310380553561749e-06  5.3932243614570653e-05  -1.3985322616109620e-04  -6.3685670536112085e-04  1.0973805929476809e-02  -8.2228951631490382e-02  4.1872334133344269e-01  -1.4259056286841829e+00  2.0256408163543851e+00  7.3940362532864876e+00  1.6879405325149932e+00  -1.2836163466946537e+00  3.8332133687597786e-01  -7.6062623358802581e-02  1.0273763487215834e-02  -6.2214007720431638e-04  -1.2425653412308788e-04  4.9523078106998110e-05  -9.1493499230153141e-06  9.1224674656351311e-07  3.3303094453660114e-08  -3.5366631196382206e-08  8.0858074655981740e-09  -1.0231073034276081e-09  2.1112528292995694e-11  2.5270820364176555e-11  -7.1342877614905507e-12  1.0722071216190845e-12  -5.8803383119351653e-14  -1.7378785720693366e-14  0.0000000000000000e+00  0.0000000000000000e+00  -4.0690183770479522e-13  3.5136871800054399e-13  1.1201942119646099e-11  -1.0652921407009851e-10  5.3278464455681928e-10  -9.7743971535286756e-10  -9.5650752472636997e-09  1.1515263779133213e-07  -6.6639796893976635e-07  1.8180872568948871e-06  7.2337576057117367e-06  -1.2696274284855312e-04  8.6597010964453160e-04  -3.1670266953604410e-03  -3.1697418290083565e-03  1.5038745956618310e-01  -1.3324291293328017e+00  7.3940362532864867e+00  -2.4050001583400359e+01  -2.2806812358481270e+01  7.0848938926489051e+00  -1.2836163466946597e+00  1.4592531011136378e-01  -3.3187795476024746e-03  -3.0132955895835912e-03  8.3221629353453673e-04  -1.2287425776071740e-04  7.1692317560163769e-06  1.7171137921765417e-06  -6.3914136280651635e-07  1.1122471212075608e-07  -9.3729163533105700e-09  -9.0994436827026607e-10  5.0990976564528942e-10  -1.027214899067562