<?xml version="1.0"?>
<VTKFile type="UnstructuredGrid"  version="0.1"  >
<UnstructuredGrid>
<Piece  NumberOfPoints="1681" NumberOfCells="3200">
<Points>
<DataArray  type="Float64"  NumberOfComponents="3"  format="ascii">-2 -2 0  -1.9 -2 0  -1.8 -2 0  -1.7 -2 0  -1.6 -2 0  -1.5 -2 0  -1.4 -2 0  -1.3 -2 0  -1.2 -2 0  -1.1 -2 0  -1 -2 0  -0.8999999999999999 -2 0  -0.8 -2 0  -0.7 -2 0  -0.6000000000000001 -2 0  -0.5 -2 0  -0.3999999999999999 -2 0  -0.3 -2 0  -0.2 -2 0  -0.1000000000000001 -2 0  0 -2 0  0.1000000000000001 -2 0  0.2000000000000002 -2 0  0.2999999999999998 -2 0  0.3999999999999999 -2 0  0.5 -2 0  0.6000000000000001 -2 0  0.7000000000000002 -2 0  0.7999999999999998 -2 0  0.8999999999999999 -2 0  1 -2 0  1.1 -2 0  1.2 -2 0  1.3 -2 0  1.4 -2 0  1.5 -2 0  1.6 -2 0  1.7 -2 0  1.8 -2 0  1.9 -2 0  2 -2 0  -2 -1.9 0  -1.9 -1.9 0  -1.8 -1.9 0  -1.7 -1.9 0  -1.6 -1.9 0  -1.5 -1.9 0  -1.4 -1.9 0  -1.3 -1.9 0  -1.2 -1.9 0  -1.1 -1.9 0  -1 -1.9 0  -0.8999999999999999 -1.9 0  -0.8 -1.9 0  -0.7 -1.9 0  -0.6000000000000001 -1.9 0  -0.5 -1.9 0  -0.3999999999999999 -1.9 0  -0.3 -1.9 0  -0.2 -1.9 0  -0.1000000000000001 -1.9 0  0 -1.9 0  0.1000000000000001 -1.9 0  0.2000000000000002 -1.9 0  0.2999999999999998 -1.9 0  0.3999999999999999 -1.9 0  0.5 -1.9 0  0.6000000000000001 -1.9 0  0.7000000000000002 -1.9 0  0.7999999999999998 -1.9 0  0.8999999999999999 -1.9 0  1 -1.9 0  1.1 -1.9 0  1.2 -1.9 0  1.3 -1.9 0  1.4 -1.9 0  1.5 -1.9 0  1.6 -1.9 0  1.7 -1.9 0  1.8 -1.9 0  1.9 -1.9 0  2 -1.9 0  -2 -1.8 0  -1.9 -1.8 0  -1.8 -1.8 0  -1.7 -1.8 0  -1.6 -1.8 0  -1.5 -1.8 0  -1.4 -1.8 0  -1.3 -1.8 0  -1.2 -1.8 0  -1.1 -1.8 0  -1 -1.8 0  -0.8999999999999999 -1.8 0  -0.8 -1.8 0  -0.7 -1.8 0  -0.6000000000000001 -1.8 0  -0.5 -1.8 0  -0.3999999999999999 -1.8 0  -0.3 -1.8 0  -0.2 -1.8 0  -0.1000000000000001 -1.8 0  0 -1.8 0  0.1000000000000001 -1.8 0  0.2000000000000002 -1.8 0  0.2999999999999998 -1.8 0  0.3999999999999999 -1.8 0  0.5 -1.8 0  0.6000000000000001 -1.8 0  0.7000000000000002 -1.8 0  0.7999999999999998 -1.8 0  0.8999999999999999 -1.8 0  1 -1.8 0  1.1 -1.8 0  1.2 -1.8 0  1.3 -1.8 0  1.4 -1.8 0  1.5 -1.8 0  1.6 -1.8 0  1.7 -1.8 0  1.8 -1.8 0  1.9 -1.8 0  2 -1.8 0  -2 -1.7 0  -1.9 -1.7 0  -1.8 -1.7 0  -1.7 -1.7 0  -1.6 -1.7 0  -1.5 -1.7 0  -1.4 -1.7 0  -1.3 -1.7 0  -1.2 -1.7 0  -1.1 -1.7 0  -1 -1.7 0  -0.8999999999999999 -1.7 0  -0.8 -1.7 0  -0.7 -1.7 0  -0.6000000000000001 -1.7 0  -0.5 -1.7 0  -0.3999999999999999 -1.7 0  -0.3 -1.7 0  -0.2 -1.7 0  -0.1000000000000001 -1.7 0  0 -1.7 0  0.1000000000000001 -1.7 0  0.2000000000000002 -1.7 0  0.2999999999999998 -1.7 0  0.3999999999999999 -1.7 0  0.5 -1.7 0  0.6000000000000001 -1.7 0  0.7000000000000002 -1.7 0  0.7999999999999998 -1.7 0  0.8999999999999999 -1.7 0  1 -1.7 0  1.1 -1.7 0  1.2 -1.7 0  1.3 -1.7 0  1.4 -1.7 0  1.5 -1.7 0  1.6 -1.7 0  1.7 -1.7 0  1.8 -1.7 0  1.9 -1.7 0  2 -1.7 0  -2 -1.6 0  -1.9 -1.6 0  -1.8 -1.6 0  -1.7 -1.6 0  -1.6 -1.6 0  -1.5 -1.6 0  -1.4 -1.6 0  -1.3 -1.6 0  -1.2 -1.6 0  -1.1 -1.6 0  -1 -1.6 0  -0.8999999999999999 -1.6 0  -0.8 -1.6 0  -0.7 -1.6 0  -0.6000000000000001 -1.6 0  -0.5 -1.6 0  -0.3999999999999999 -1.6 0  -0.3 -1.6 0  -0.2 -1.6 0  -0.1000000000000001 -1.6 0  0 -1.6 0  0.1000000000000001 -1.6 0  0.2000000000000002 -1.6 0  0.2999999999999998 -1.6 0  0.3999999999999999 -1.6 0  0.5 -1.6 0  0.6000000000000001 -1.6 0  0.7000000000000002 -1.6 0  0.7999999999999998 -1.6 0  0.8999999999999999 -1.6 0  1 -1.6 0  1.1 -1.6 0  1.2 -1.6 0  1.3 -1.6 0  1.4 -1.6 0  1.5 -1.6 0  1.6 -1.6 0  1.7 -1.6 0  1.8 -1.6 0  1.9 -1.6 0  2 -1.6 0  -2 -1.5 0  -1.9 -1.5 0  -1.8 -1.5 0  -1.7 -1.5 0  -1.6 -1.5 0  -1.5 -1.5 0  -1.4 -1.5 0  -1.3 -1.5 0  -1.2 -1.5 0  -1.1 -1.5 0  -1 -1.5 0  -0.8999999999999999 -1.5 0  -0.8 -1.5 0  -0.7 -1.5 0  -0.6000000000000001 -1.5 0  -0.5 -1.5 0  -0.3999999999999999 -1.5 0  -0.3 -1.5 0  -0.2 -1.5 0  -0.1000000000000001 -1.5 0  0 -1.5 0  0.1000000000000001 -1.5 0  0.2000000000000002 -1.5 0  0.2999999999999998 -1.5 0  0.3999999999999999 -1.5 0  0.5 -1.5 0  0.6000000000000001 -1.5 0  0.7000000000000002 -1.5 0  0.7999999999999998 -1.5 0  0.8999999999999999 -1.5 0  1 -1.5 0  1.1 -1.5 0  1.2 -1.5 0  1.3 -1.5 0  1.4 -1.5 0  1.5 -1.5 0  1.6 -1.5 0  1.7 -1.5 0  1.8 -1.5 0  1.9 -1.5 0  2 -1.5 0  -2 -1.4 0  -1.9 -1.4 0  -1.8 -1.4 0  -1.7 -1.4 0  -1.6 -1.4 0  -1.5 -1.4 0  -1.4 -1.4 0  -1.3 -1.4 0  -1.2 -1.4 0  -1.1 -1.4 0  -1 -1.4 0  -0.8999999999999999 -1.4 0  -0.8 -1.4 0  -0.7 -1.4 0  -0.6000000000000001 -1.4 0  -0.5 -1.4 0  -0.3999999999999999 -1.4 0  -0.3 -1.4 0  -0.2 -1.4 0  -0.1000000000000001 -1.4 0  0 -1.4 0  0.1000000000000001 -1.4 0  0.2000000000000002 -1.4 0  0.2999999999999998 -1.4 0  0.3999999999999999 -1.4 0  0.5 -1.4 0  0.6000000000000001 -1.4 0  0.7000000000000002 -1.4 0  0.7999999999999998 -1.4 0  0.8999999999999999 -1.4 0  1 -1.4 0  1.1 -1.4 0  1.2 -1.4 0  1.3 -1.4 0  1.4 -1.4 0  1.5 -1.4 0  1.6 -1.4 0  1.7 -1.4 0  1.8 -1.4 0  1.9 -1.4 0  2 -1.4 0  -2 -1.3 0  -1.9 -1.3 0  -1.8 -1.3 0  -1.7 -1.3 0  -1.6 -1.3 0  -1.5 -1.3 0  -1.4 -1.3 0  -1.3 -1.3 0  -1.2 -1.3 0  -1.1 -1.3 0  -1 -1.3 0  -0.8999999999999999 -1.3 0  -0.8 -1.3 0  -0.7 -1.3 0  -0.6000000000000001 -1.3 0  -0.5 -1.3 0  -0.3999999999999999 -1.3 0  -0.3 -1.3 0  -0.2 -1.3 0  -0.1000000000000001 -1.3 0  0 -1.3 0  0.1000000000000001 -1.3 0  0.2000000000000002 -1.3 0  0.2999999999999998 -1.3 0  0.3999999999999999 -1.3 0  0.5 -1.3 0  0.6000000000000001 -1.3 0  0.7000000000000002 -1.3 0  0.7999999999999998 -1.3 0  0.8999999999999999 -1.3 0  1 -1.3 0  1.1 -1.3 0  1.2 -1.3 0  1.3 -1.3 0  1.4 -1.3 0  1.5 -1.3 0  1.6 -1.3 0  1.7 -1.3 0  1.8 -1.3 0  1.9 -1.3 0  2 -1.3 0  -2 -1.2 0  -1.9 -1.2 0  -1.8 -1.2 0  -1.7 -1.2 0  -1.6 -1.2 0  -1.5 -1.2 0  -1.4 -1.2 0  -1.3 -1.2 0  -1.2 -1.2 0  -1.1 -1.2 0  -1 -1.2 0  -0.8999999999999999 -1.2 0  -0.8 -1.2 0  -0.7 -1.2 0  -0.6000000000000001 -1.2 0  -0.5 -1.2 0  -0.3999999999999999 -1.2 0  -0.3 -1.2 0  -0.2 -1.2 0  -0.1000000000000001 -1.2 0  0 -1.2 0  0.1000000000000001 -1.2 0  0.2000000000000002 -1.2 0  0.2999999999999998 -1.2 0  0.3999999999999999 -1.2 0  0.5 -1.2 0  0.6000000000000001 -1.2 0  0.7000000000000002 -1.2 0  0.7999999999999998 -1.2 0  0.8999999999999999 -1.2 0  1 -1.2 0  1.1 -1.2 0  1.2 -1.2 0  1.3 -1.2 0  1.4 -1.2 0  1.5 -1.2 0  1.6 -1.2 0  1.7 -1.2 0  1.8 -1.2 0  1.9 -1.2 0  2 -1.2 0  -2 -1.1 0  -1.9 -1.1 0  -1.8 -1.1 0  -1.7 -1.1 0  -1.6 -1.1 0  -1.5 -1.1 0  -1.4 -1.1 0  -1.3 -1.1 0  -1.2 -1.1 0  -1.1 -1.1 0  -1 -1.1 0  -0.8999999999999999 -1.1 0  -0.8 -1.1 0  -0.7 -1.1 0  -0.6000000000000001 -1.1 0  -0.5 -1.1 0  -0.3999999999999999 -1.1 0  -0.3 -1.1 0  -0.2 -1.1 0  -0.1000000000000001 -1.1 0  0 -1.1 0  0.1000000000000001 -1.1 0  0.2000000000000002 -1.1 0  0.2999999999999998 -1.1 0  0.3999999999999999 -1.1 0  0.5 -1.1 0  0.6000000000000001 -1.1 0  0.7000000000000002 -1.1 0  0.7999999999999998 -1.1 0  0.8999999999999999 -1.1 0  1 -1.1 0  1.1 -1.1 0  1.2 -1.1 0  1.3 -1.1 0  1.4 -1.1 0  1.5 -1.1 0  1.6 -1.1 0  1.7 -1.1 0  1.8 -1.1 0  1.9 -1.1 0  2 -1.1 0  -2 -1 0  -1.9 -1 0  -1.8 -1 0  -1.7 -1 0  -1.6 -1 0  -1.5 -1 0  -1.4 -1 0  -1.3 -1 0  -1.2 -1 0  -1.1 -1 0  -1 -1 0  -0.8999999999999999 -1 0  -0.8 -1 0  -0.7 -1 0  -0.6000000000000001 -1 0  -0.5 -1 0  -0.3999999999999999 -1 0  -0.3 -1 0  -0.2 -1 0  -0.1000000000000001 -1 0  0 -1 0  0.1000000000000001 -1 0  0.2000000000000002 -1 0  0.2999999999999998 -1 0  0.3999999999999999 -1 0  0.5 -1 0  0.6000000000000001 -1 0  0.7000000000000002 -1 0  0.7999999999999998 -1 0  0.8999999999999999 -1 0  1 -1 0  1.1 -1 0  1.2 -1 0  1.3 -1 0  1.4 -1 0  1.5 -1 0  1.6 -1 0  1.7 -1 0  1.8 -1 0  1.9 -1 0  2 -1 0  -2 -0.8999999999999999 0  -1.9 -0.8999999999999999 0  -1.8 -0.8999999999999999 0  -1.7 -0.8999999999999999 0  -1.6 -0.8999999999999999 0  -1.5 -0.8999999999999999 0  -1.4 -0.8999999999999999 0  -1.3 -0.8999999999999999 0  -1.2 -0.8999999999999999 0  -1.1 -0.8999999999999999 0  -1 -0.8999999999999999 0  -0.8999999999999999 -0.8999999999999999 0  -0.8 -0.8999999999999999 0  -0.7 -0.8999999999999999 0  -0.6000000000000001 -0.8999999999999999 0  -0.5 -0.8999999999999999 0  -0.3999999999999999 -0.8999999999999999 0  -0.3 -0.8999999999999999 0  -0.2 -0.8999999999999999 0  -0.1000000000000001 -0.8999999999999999 0  0 -0.8999999999999999 0  0.1000000000000001 -0.8999999999999999 0  0.2000000000000002 -0.8999999999999999 0  0.2999999999999998 -0.8999999999999999 0  0.3999999999999999 -0.8999999999999999 0  0.5 -0.8999999999999999 0  0.6000000000000001 -0.8999999999999999 0  0.7000000000000002 -0.8999999999999999 0  0.7999999999999998 -0.8999999999999999 0  0.8999999999999999 -0.8999999999999999 0  1 -0.8999999999999999 0  1.1 -0.8999999999999999 0  1.2 -0.8999999999999999 0  1.3 -0.8999999999999999 0  1.4 -0.8999999999999999 0  1.5 -0.8999999999999999 0  1.6 -0.8999999999999999 0  1.7 -0.8999999999999999 0  1.8 -0.8999999999999999 0  1.9 -0.8999999999999999 0  2 -0.8999999999999999 0  -2 -0.8 0  -1.9 -0.8 0  -1.8 -0.8 0  -1.7 -0.8 0  -1.6 -0.8 0  -1.5 -0.8 0  -1.4 -0.8 0  -1.3 -0.8 0  -1.2 -0.8 0  -1.1 -0.8 0  -1 -0.8 0  -0.8999999999999999 -0.8 0  -0.8 -0.8 0  -0.7 -0.8 0  -0.6000000000000001 -0.8 0  -0.5 -0.8 0  -0.3999999999999999 -0.8 0  -0.3 -0.8 0  -0.2 -0.8 0  -0.1000000000000001 -0.8 0  0 -0.8 0  0.1000000000000001 -0.8 0  0.2000000000000002 -0.8 0  0.2999999999999998 -0.8 0  0.3999999999999999 -0.8 0  0.5 -0.8 0  0.6000000000000001 -0.8 0  0.7000000000000002 -0.8 0  0.7999999999999998 -0.8 0  0.8999999999999999 -0.8 0  1 -0.8 0  1.1 -0.8 0  1.2 -0.8 0  1.3 -0.8 0  1.4 -0.8 0  1.5 -0.8 0  1.6 -0.8 0  1.7 -0.8 0  1.8 -0.8 0  1.9 -0.8 0  2 -0.8 0  -2 -0.7 0  -1.9 -0.7 0  -1.8 -0.7 0  -1.7 -0.7 0  -1.6 -0.7 0  -1.5 -0.7 0  -1.4 -0.7 0  -1.3 -0.7 0  -1.2 -0.7 0  -1.1 -0.7 0  -1 -0.7 0  -0.8999999999999999 -0.7 0  -0.8 -0.7 0  -0.7 -0.7 0  -0.6000000000000001 -0.7 0  -0.5 -0.7 0  -0.3999999999999999 -0.7 0  -0.3 -0.7 0  -0.2 -0.7 0  -0.1000000000000001 -0.7 0  0 -0.7 0  0.1000000000000001 -0.7 0  0.2000000000000002 -0.7 0  0.2999999999999998 -0.7 0  0.3999999999999999 -0.7 0  0.5 -0.7 0  0.600000000000000
[...]
<PointData  Scalars="f_1726"> 
<DataArray  type="Float64"  Name="f_1726"  format="ascii">0.0000000000000000e+00  0.0000000000000000e+00  0.0000000000000000e+00  0.0000000000000000e+00  0.0000000000000000e+00  0.0000000000000000e+00  0.0000000000000000e+00  0.0000000000000000e+00  0.0000000000000000e+00  0.0000000000000000e+00  0.0000000000000000e+00  0.0000000000000000e+00  0.0000000000000000e+00  0.0000000000000000e+00  0.0000000000000000e+00  0.0000000000000000e+00  0.0000000000000000e+00  0.0000000000000000e+00  0.0000000000000000e+00  0.0000000000000000e+00  0.0000000000000000e+00  0.0000000000000000e+00  0.0000000000000000e+00  0.0000000000000000e+00  0.0000000000000000e+00  0.0000000000000000e+00  0.0000000000000000e+00  0.0000000000000000e+00  0.0000000000000000e+00  0.0000000000000000e+00  0.0000000000000000e+00  0.0000000000000000e+00  0.0000000000000000e+00  0.0000000000000000e+00  0.0000000000000000e+00  0.0000000000000000e+00  0.0000000000000000e+00  0.0000000000000000e+00  0.0000000000000000e+00  0.0000000000000000e+00  0.0000000000000000e+00  0.0000000000000000e+00  -3.5181972695903698e-12  -4.0999636360952190e-12  2.6942027260985267e-11  -6.4922646766892502e-12  -1.3645195761017957e-10  7.3516329221489463e-11  6.7138260124589252e-10  9.2370586419821331e-11  -2.7867872707287756e-09  -5.5606620003080924e-09  -4.9014668339364580e-09  -1.6893956022459736e-09  4.5721151228137578e-10  4.6320304370459492e-10  -4.3966490446753051e-11  -8.8781774531566055e-11  1.4874359140003190e-11  1.3664731463727964e-11  -5.3136812327259634e-12  -9.7079287286193198e-13  1.1568944756936922e-12  -2.2694743295460373e-13  -9.8942203718903969e-14  7.3908413273107015e-14  -1.6225575515769622e-14  -3.6863130282132174e-15  4.0717946800518303e-15  -1.4606084550408807e-15  1.7143111868885224e-16  1.0974682775244281e-16  -8.1796625030958781e-17  3.0653577893088821e-17  -6.7789182285053809e-18  5.6125939567759828e-20  7.9482203593404756e-19  -4.7811580518651250e-19  1.9453064177250093e-19  -6.4485029020344511e-20  2.0441332728671290e-20  0.0000000000000000e+00  0.0000000000000000e+00  -4.0999636360952182e-12  2.9485296743917838e-11  -2.6230075480350594e-11  -1.2916757215788918e-10  2.7124983725320918e-10  5.0696029583023068e-10  -1.4605541461174820e-09  -2.8530343060629780e-09  4.2540778173901774e-09  1.8232925285463270e-08  2.3802920396511468e-08  1.3940700113552513e-08  1.1275496376048613e-09  -2.7024508218536012e-09  -6.1427300145371493e-10  5.0173110184639381e-10  8.4884658709730707e-11  -1.0050566510945540e-10  4.5884810280975031e-12  1.5755782113888289e-11  -5.3097731142352925e-12  -7.6790617379513290e-13  1.1075735744479090e-12  -3.2037223136372643e-13  -2.9845678950967507e-14  6.0135393501401657e-14  -2.3981928553048386e-14  3.3356010932961912e-15  1.5874616595744343e-15  -1.2786604776931915e-15  4.8170461866928757e-16  -1.0284652839590628e-16  -1.9204871999942979e-18  1.3561439424770569e-17  -7.6935136853879413e-18  3.0077275845601115e-18  -9.5109912665719987e-19  2.5836143439042963e-19  -6.4485029020344596e-20  0.0000000000000000e+00  0.0000000000000000e+00  2.6942027260985277e-11  -2.6230075480350607e-11  -1.1809154291728165e-10  3.4973486291400042e-10  1.9294902513543120e-10  -2.0748178367746139e-09  1.2874258905404405e-10  1.0364645400352308e-08  3.9361638835560454e-09  -4.2160716393308359e-08  -8.9724266701982938e-08  -7.9534665933545511e-08  -2.5810834104379908e-08  8.4807039214918612e-09  6.9083194241554736e-09  -1.2275764920983307e-09  -1.2362536417605102e-09  3.6483689373507616e-10  1.4628478934132998e-10  -9.6280823715330523e-11  3.9220161098300545e-12  1.4001821402133525e-11  -5.7428028885772789e-12  1.7071994986479439e-13  7.7693468878911139e-13  -3.7671096524187242e-13  6.9395106488070170e-14  1.7625956882933949e-14  -1.8443428459411074e-14  7.4739481218109922e-15  -1.7093043861794671e-15  1.9650682772056374e-17  1.9703163844349918e-16  -1.1683879853566598e-16  4.6387682225945609e-17  -1.4810943318067612e-17  4.0135469237983620e-18  -9.5109912665719582e-19  1.9453064177250040e-19  0.0000000000000000e+00  0.0000000000000000e+00  -6.4922646766892445e-12  -1.2916757215788924e-10  3.4973486291400047e-10  6.5635658288566319e-11  -2.1251330868516935e-09  2.4199167750843731e-09  9.2755236992564955e-09  -1.6916518144056181e-08  -4.6737569105854961e-08  5.0814886751678186e-08  2.7000758856750414e-07  3.6392791409262650e-07  2.0848572711896559e-07  9.6190693030716547e-09  -4.1403138324098888e-08  -5.8551086747036614e-09  7.8179135698439329e-09  2.3528431444324073e-10  -1.3911519513755653e-09  2.8970993265840486e-10  1.4264781549297636e-10  -9.3165789569625850e-11  1.2500474179681203e-11  8.9666884189445140e-12  -5.7224142157792877e-12  1.3450353187784707e-12  1.5136129390088646e-13  -2.6007897148762371e-13  1.1572901402419061e-13  -2.8605708189554933e-14  1.2079643023957313e-15  2.8318336272329156e-15  -1.7821797178022830e-15  7.2186257226459867e-16  -2.3250409814977835e-16  6.3237878430674781e-17  -1.4810943318067686e-17  3.0077275845601177e-18  -4.7811580518651462e-19  0.0000000000000000e+00  0.0000000000000000e+00  -1.3645195761017980e-10  2.7124983725320939e-10  1.9294902513543117e-10  -2.1251330868516939e-09  3.1606738686303772e-09  6.9920795612937686e-09  -2.6708462455468024e-08  -1.4847355604350824e-08  1.4408676139484877e-07  9.9205622458033755e-08  -5.8682874856440932e-07  -1.3563298176503903e-06  -1.2088645346843457e-06  -3.6110345020328589e-07  1.4691608273190102e-07  9.2045790721101364e-08  -2.6591054125474756e-08  -1.4174336391675689e-08  6.9575693804559582e-09  7.4903008429141198e-10  -1.3414273481634547e-09  3.3000854619421633e-10  8.2068718505342463e-11  -8.2867733413883888e-11  2.4508054659750554e-11  3.2164335702966438e-13  -3.5512139255254580e-12  1.7753364441625934e-12  -4.7596292868529925e-13  3.3710783006252184e-14  4.0132304408477172e-14  -2.7136341348649293e-14  1.1238661486359330e-14  -3.6524184543934091e-15  9.9559225611186046e-16  -2.3250409814977806e-16  4.6387682225945745e-17  -7.6935136853879321e-18  7.9482203593404746e-19  0.0000000000000000e+00  0.0000000000000000e+00  7.3516329221489980e-11  5.0696029583023120e-10  -2.0748178367746151e-09  2.4199167750843752e-09  6.9920795612937686e-09  -2.8850835894724094e-08  7.8129526470168385e-09  1.5207966915825999e-07  -1.6337491385560640e-07  -7.4291287196787248e-07  5.4039393287687069e-07  3.9738980479980509e-06  5.5648621969762118e-06  3.1000858216213172e-06  1.5143642322357054e-08  -6.2228785480289739e-07  -2.9333704064002165e-08  1.1392736600239969e-07  -1.2764265457458083e-08  -1.6062306918102324e-08  6.6588491400689921e-09  2.7570591963577241e-10  -1.1177861735973727e-09  4.2330577235516775e-10  -2.8033702607740773e-11  -4.6142842262654913e-11  2.6879694094119527e-11  -7.8658002280989603e-12  7.7204404000745183e-13  5.5705642227718164e-13  -4.1188049313893440e-13  1.7497114977324219e-13  -5.7432286065114428e-14  1.5690686894628510e-14  -3.6524184543934099e-15  7.2186257226459808e-16  -1.1683879853566640e-16  1.3561439424770578e-17  5.6125939567753316e-20  0.0000000000000000e+00  0.0000000000000000e+00  6.7138260124589294e-10  -1.4605541461174859e-09  1.2874258905404465e-10  9.2755236992564988e-09  -2.6708462455468034e-08  7.8129526470168517e-09  1.4468467932295879e-07  -2.8877624838813259e-07  -4.5860911454804399e-07  1.8928967176845851e-06  2.1044922966595697e-06  -8.0126057540660674e-06  -2.0567658246576195e-05  -1.8439164083552149e-05  -4.9400068500149690e-06  2.5142583756411659e-06  1.1471349071798332e-06  -5.0634138517565262e-07  -1.2490914545308747e-07  1.1177556247000321e-07  -1.1882851991467958e-08  -1.3360632893558655e-08  6.9189816594585536e-09  -9.5821737163447776e-10  -5.5140221350310069e-10  3.9967328526156958e-10  -1.2898955251413068e-10  1.6127555449456503e-11  7.5019201945774790e-12  -6.2259430252764865e-12  2.7238842588886077e-12  -9.0416497628305427e-13  2.4763993290996060e-13  -5.7432286065114516e-14  1.1238661486359357e-14  -1.7821797178022865e-15  1.9703163844350029e-16  -1.9204871999944269e-18  -6.7789182285053624e-18  0.0000000000000000e+00  0.0000000000000000e+00  9.2370586419821305e-11  -2.8530343060629768e-09  1.0364645400352323e-08  -1.6916518144056201e-08  -1.4847355604350839e-08  1.5207966915826005e-07  -2.8877624838813270e-07  -3.1155060782401815e-07  2.2186912001624714e-06  -8.9504554105944978e-07  -1.1428840024385719e-05  4.3613304904649283e-06  5.8320852571117394e-05  8.5589243838487064e-05  4.5996607367751062e-05  -2.0514838426273116e-06  -9.1297605701889012e-06  5.3846418813609185e-07  1.5037641849497143e-06  -4.1302446971251373e-07  -1.2239976600604486e-07  1.0559156877673159e-07  -2.2768078064917340e-08  -5.5613006069255167e-09  5.7893794149568242e-09  -2.0954418029130837e-09  3.1935031566411813e-10  9.6388978693948241e-11  -9.3604813206700594e-11  4.2397270677522557e-11  -1.4254000331983214e-11  3.9148810752057864e-12  -9.0416497628305063e-13  1.7497114977324164e-13  -2.7136341348649198e-14  2.8318336272328994e-15  1.9650682772058509e-17  -1.0284652839590614e-16  3.0653577893088741e-17  0.0000000000000000e+00  0.0000000000000000e+00  -2.7867872707287789e-09  4.2540778173901799e-09  3.9361638835560289e-09  -4.6737569105855027e-08  1.4408676139484893e-07  -1.6337491385560648e-07  -4.5860911454804436e-07  2.2186912001624727e-06  -1.9820299658821814e-06  -9.7517957241719110e-06  2.2493264221621141e-05  4.0829484007900529e-05  -1.0611345897485406e-04  -3.1328238537546913e-04  -2.8265654721041663e-04  -6.5123042764450001e-05  4.2464767430403350e-05  1.2523960111315738e-05  -8.7024094092465819e-06  -2.5587295552879833e-07  1.4524698849853455e-06  -4.6184850260935978e-07  -3.2571878735465595e-08  8.0555220689867784e-08  -3.3623577473298921e-08  6.1039857858400617e-09  1.1414889096602925e-09  -1.3971403540651873e-09  6.5969828018072934e-10  -2.2507295487882226e-10  6.2009763358483236e-11  -1.4254000331983286e-11  2.7238842588886134e-12  -4.1188049313893637e-13  4.0132304408477589e-14  1.2079643023956463e-15  -1.7093043861794591e-15  4.8170461866928491e-16  -8.1796625030958486e-17  0.0000000000000000e+00  0.0000000000000000e+00  -5.5606620003080916e-09  1.8232925285463276e-08  -4.2160716393308372e-08  5.0814886751678344e-08  9.9205622458033781e-08  -7.4291287196787354e-07  1.8928967176845875e-06  -8.9504554105945084e-07  -9.7517957241719110e-06  2.7055796775601238e-05  1.2190472706197265e-05  -1.6764787283183577e-04  1.0519328778003277e-06  8.5174075087673246e-04  1.3268641570526993e-03  6.7964714889714550e-04  -7.1725354365586932e-05  -1.2838232117019823e-04  2.3742178681014921e-05  1.6331672275353936e-05  -8.3464687300522606e-06  4.3490102917277496e-07  1.0473337159019191e-06  -5.3022585615566656e-07  1.1369326202514269e-07  1.1380002265181641e-08  -2.0644170165969062e-08  1.0258964861766273e-08  -3.5606961481773720e-09  9.8447638881822830e-10  -2.2507295487882193e-10  4.2397270677522654e-11  -6.2259430252764792e-12  5.5705642227718134e-13  3.3710783006252284e-14  -2.8605708189554914e-14  7.4739481218110174e-15  -1.2786604776931907e-15  1.0974682775244293e-16  0.0000000000000000e+00  0.0000000000000000e+00  -4.9014668339364572e-09  2.3802920396511464e-08  -8.9724266701982951e-08  2.7000758856750414e-07  -5.8682874856441017e-07  5.4039393287687165e-07  2.1044922966595709e-06  -1.1428840024385729e-05  2.2493264221621151e-05  1.2190472706197267e-05  -1.6833047964592656e-04  2.1298251549836835e-04  7.4446894457165459e-04  -1.3300422259524844e-03  -4.8005936706352137e-03  -4.3618198072574487e-03  -8.0013407812537204e-04  7.0429455996082256e-04  9.4464754075270917e-05  -1.3232643853717163e-04  2.2423578579566078e-05  1.1912918467442845e-05  -8.1414410856853788e-06  2.0734238189512291e-06  6.1998281367031841e-08  -3.0060096878689154e-07  1.5938241801800869e-07  -5.6459652203087881e-08  1.5673455241490523e-08  -3.5606961481773728e-09  6.5969828018072924e-10  -9.3604813206700969e-11  7.5019201945775129e-12  7.7204404000744345e-13  -4.7596292868529733e-13  1.1572901402419005e-13  -1.8443428459411033e-14  1.5874616595744189e-15  1.7143111868885426e-16  0.0000000000000000e+00  0.0000000000000000e+00  -1.6893956022459730e-09  1.3940700113552510e-08  -7.9534665933545484e-08  3.6392791409262661e-07  -1.3563298176503907e-06  3.9738980479980534e-06  -8.0126057540660758e-06  4.3613304904649333e-06  4.0829484007900583e-05  -1.6764787283183590e-04  2.1298251549836845e-04  5.6629114154061377e-04  -2.2611817491816817e-03  -1.1126282269914400e-03  1.2326308326064321e-02  2.0805421377000956e-02  9.9596625095395505e-03  -1.8263261414108816e-03  -1.6579908995624066e-03  5.8067020770354786e-04  9.3622118911749919e-05  -1.1948023939090819e-04  3.7059712551121018e-05  -1.1398684815926778e-06  -4.2796364600787632e-06  2.4721231116420337e-06  -8.9775263194285166e-07  2.5039329987044124e-07  -5.6459652203087967e-08  1.0258964861766296e-08  -1.3971403540651908e-09  9.6388978693949159e-11  1.6127555449456390e-11  -7.8658002280989490e-12  1.7753364441625918e-12  -2.6007897148762325e-13  1.7625956882933974e-14  3.3356010932961877e-15  -1.4606084550408803e-15  0.0000000000000000e+00  0.0000000000000000e+00  4.5721151228137677e-10  1.1275496376048553e-09  -2.5810834104379882e-08  2.0848572711896543e-07  -1.2088645346843455e-06  5.5648621969762126e-06  -2.0567658246576205e-05  5.8320852571117428e-05  -1.0611345897485417e-04  1.0519328778002259e-06  7.4446894457165546e-04  -2.2611817491816830e-03  6.7613520676299975e-04  1.2777410735586203e-02  -1.4802304429304889e-02  -7.4194162928128374e-02  -6.7946673613822048e-02  -8.3166336684578901e-03  1.1308597537124284e-02  -4.1007442140635661e-04  -1.6045998738446225e-03  6.4671580794110656e-04  -5.6835754642486508e-05  -5.8688974787650871e-05  3.8237846824360248e-05  -1.4325185426972548e-05  4.0176884985313540e-06  -8.9775263194284785e-07  1.5938241801800824e-07  -2.0644170165968980e-08  1.1414889096602822e-09  3.1935031566411963e-10  -1.2898955251413037e-10  2.6879694094119431e-11  -3.5512139255254366e-12  1.5136129390088288e-13  6.9395106488070827e-14  -2.3981928553048408e-14  4.0717946800518311e-15  0.0000000000000000e+00  0.0000000000000000e+00  4.6320304370459487e-10  -2.7024508218536016e-09  8.4807039214918678e-09  9.6190693030716183e-09  -3.6110345020328568e-07  3.1000858216213163e-06  -1.8439164083552146e-05  8.5589243838487091e-05  -3.1328238537546929e-04  8.5174075087673376e-04  -1.3300422259524855e-03  -1.1126282269914426e-03  1.2777410735586215e-02  -2.5105722840554966e-02  -3.6802387271220253e-02  1.7501877753790462e-01  3.3205900454845683e-01  1.4330558679202238e-01  -4.1357813495273323e-02  -1.7192053675630817e-02  1.0867810589077482e-02  -1.6226508514627037e-03  -7.5006314575082507e-04  5.8854235984778650e-04  -2.2962363289232254e-04  6.4834152596521529e-05  -1.4325185426972622e-05  2.4721231116420388e-06  -3.0060096878689345e-07  1.1380002265182010e-08  6.1039857858399865e-09  -2.0954418029130775e-09  3.9967328526156710e-10  -4.6142842262654609e-11  3.2164335702963116e-13  1.3450353187784709e-12  -3.7671096524187312e-13  6.0135393501401480e-14  -3.6863130282131953e-15  0.0000000000000000e+00  0.0000000000000000e+00  -4.3966490446753270e-11  -6.1427300145371411e-10  6.9083194241554695e-09  -4.1403138324098894e-08  1.4691608273190123e-07  1.5143642322355873e-08  -4.9400068500149647e-06  4.5996607367751048e-05  -2.8265654721041663e-04  1.3268641570526997e-03  -4.8005936706352207e-03  1.2326308326064335e-02  -1.4802304429304905e-02  -3.6802387271220274e-02  1.9957934305656314e-01  -1.1219619116058793e-01  -1.1619128893955348e+00  -1.0738178021893772e+00  -4.1393270092841980e-02  1.6827845751567688e-01  -3.9350257824696193e-02  -8.1244510248824793e-03  8.9744112252026394e-03  -3.7032923255229319e-03  1.0543745489591532e-03  -2.2962363289232224e-04  3.8237846824360322e-05  -4.2796364600787539e-06  6.1998281367030914e-08  1.1369326202514275e-07  -3.3623577473298874e-08  5.7893794149568333e-09  -5.5140221350309955e-10  -2.8033702607740854e-11  2.4508054659750544e-11  -5.7224142157792780e-12  7.7693468878911179e-13  -2.9845678950967355e-14  -1.6225575515769631e-14  0.0000000000000000e+00  0.0000000000000000e+00  -8.8781774531566068e-11  5.0173110184639433e-10  -1.2275764920983352e-09  -5.8551086747036316e-09  9.2045790721101259e-08  -6.2228785480289760e-07  2.5142583756411680e-06  -2.0514838426273238e-06  -6.5123042764449947e-05  6.7964714889714496e-04  -4.3618198072574487e-03  2.0805421377000959e-02  -7.4194162928128402e-02  1.7501877753790474e-01  -1.1219619116058792e-01  -9.0726261450790358e-01  2.3671831389837199e+00  5.4680567998860186e+00  1.9638914044765592e+00  -8.7646319274218776e-01  -4.3339535395373371e-02  1.3416381832880794e-01  -6.0246531568312896e-02  1.7338862075757543e-02  -3.7032923255229306e-03  5.8854235984778585e-04  -5.8688974787651095e-05  -1.1398684815926440e-06  2.0734238189512198e-06  -5.3022585615566412e-07  8.0555220689867228e-08  -5.5613006069254506e-09  -9.5821737163448831e-10  4.2330577235516936e-10  -8.2867733413884017e-11  8.9666884189445156e-12  1.7071994986479467e-13  -3.2037223136372603e-13  7.3908413273107002e-14  0.0000000000000000e+00  0.0000000000000000e+00  1.4874359140003238e-11  8.4884658709730487e-11  -1.2362536417605092e-09  7.8179135698439329e-09  -2.6591054125474789e-08  -2.9333704064001986e-08  1.1471349071798332e-06  -9.1297605701889012e-06  4.2464767430403370e-05  -7.1725354365586945e-05  -8.0013407812537182e-04  9.9596625095395557e-03  -6.7946673613822076e-02  3.3205900454845705e-01  -1.1619128893955362e+00  2.3671831389837208e+00  9.7819317895493874e-01  -1.8620726860109169e+01  -1.7400028710633844e+01  1.5191359291681967e+00  1.9056207415829285e+00  -9.9329247696049772e-01  2.9012059475298563e-01  -6.0246531568312972e-02  8.9744112252026567e-03  -7.5006314575082854e-04  -5.6835754642485912e-05  3.7059712551120848e-05  -8.1414410856853551e-06  1.0473337159019168e-06  -3.2571878735465430e-08  -2.2768078064917380e-08  6.9189816594585445e-09  -1.1177861735973715e-09  8.2068718505342127e-11  1.2500474179681258e-11  -5.7428028885773024e-12  1.1075735744479090e-12  -9.8942203718904133e-14  0.0000000000000000e+00  0.0000000000000000e+00  1.3664731463727964e-11  -1.0050566510945544e-10  3.6483689373507678e-10  2.3528431444323830e-10  -1.4174336391675688e-08  1.1392736600239979e-07  -5.0634138517565337e-07  5.3846418813609534e-07  1.2523960111315724e-05  -1.2838232117019831e-04  7.0429455996082310e-04  -1.8263261414108852e-03  -8.3166336684578762e-03  1.4330558679202227e-01  -1.0738178021893774e+00  5.4680567998860239e+00  -1.8620726860109176e+01  2.6452595178287030e+01  9.6557813291784996e+01  2.2042608556832025e+01  -1.6762588564173679e+01  5.0057463621951825e+00  -9.9329247696049361e-01  1.3416381832880744e-01  -8.1244510248824082e-03  -1.6226508514627055e-03  6.4671580794110743e-04  -1.1948023939090777e-04  1.1912918467442776e-05  4.3490102917278708e-07  -4.6184850260936094e-07  1.0559156877673202e-07  -1.3360632893558664e-08  2.7570591963577515e-10  3.3000854619421555e-10  -9.3165789569625578e-11  1.4001821402133515e-11  -7.6790617379512573e-13  -2.2694743295460416e-13  0.0000000000000000e+00  0.0000000000000000e+00  -5.3136812327259674e-12  4.5884810280974998e-12  1.4628478934133021e-10  -1.3911519513755673e-09  6.9575693804559698e-09  -1.2764265457458112e-08  -1.2490914545308737e-07  1.5037641849497149e-06  -8.7024094092465887e-06  2.3742178681014965e-05  9.4464754075270808e-05  -1.6579908995624072e-03  1.1308597537124293e-02  -4.1357813495273385e-02  -4.1393270092841633e-02  1.9638914044765592e+00  -1.7400028710633855e+01  9.6557813291785067e+01  -3.1406602334752301e+02  -2.9783136761226876e+02  9.2520761089646129e+01  -1.6762588564173750e+01  1.9056207415829347e+00  -4.3339535395375023e-02  -3.9350257824695853e-02  1.0867810589077407e-02  -1.6045998738446162e-03  9.3622118911748347e-05  2.2423578579566288e-05  -8.3464687300522843e-06  1.4524698849853467e-06  -1.2239976600604518e-07  -1.1882851991467955e-08  6.6588491400689971e-09  -1.341427348163456