<?xml version="1.0"?>
<VTKFile type="UnstructuredGrid"  version="0.1"  >
<UnstructuredGrid>
<Piece  NumberOfPoints="1681" NumberOfCells="3200">
<Points>
<DataArray  type="Float64"  NumberOfComponents="3"  format="ascii">-2 -2 0  -1.9 -2 0  -1.8 -2 0  -1.7 -2 0  -1.6 -2 0  -1.5 -2 0  -1.4 -2 0  -1.3 -2 0  -1.2 -2 0  -1.1 -2 0  -1 -2 0  -0.8999999999999999 -2 0  -0.8 -2 0  -0.7 -2 0  -0.6000000000000001 -2 0  -0.5 -2 0  -0.3999999999999999 -2 0  -0.3 -2 0  -0.2 -2 0  -0.1000000000000001 -2 0  0 -2 0  0.1000000000000001 -2 0  0.2000000000000002 -2 0  0.2999999999999998 -2 0  0.3999999999999999 -2 0  0.5 -2 0  0.6000000000000001 -2 0  0.7000000000000002 -2 0  0.7999999999999998 -2 0  0.8999999999999999 -2 0  1 -2 0  1.1 -2 0  1.2 -2 0  1.3 -2 0  1.4 -2 0  1.5 -2 0  1.6 -2 0  1.7 -2 0  1.8 -2 0  1.9 -2 0  2 -2 0  -2 -1.9 0  -1.9 -1.9 0  -1.8 -1.9 0  -1.7 -1.9 0  -1.6 -1.9 0  -1.5 -1.9 0  -1.4 -1.9 0  -1.3 -1.9 0  -1.2 -1.9 0  -1.1 -1.9 0  -1 -1.9 0  -0.8999999999999999 -1.9 0  -0.8 -1.9 0  -0.7 -1.9 0  -0.6000000000000001 -1.9 0  -0.5 -1.9 0  -0.3999999999999999 -1.9 0  -0.3 -1.9 0  -0.2 -1.9 0  -0.1000000000000001 -1.9 0  0 -1.9 0  0.1000000000000001 -1.9 0  0.2000000000000002 -1.9 0  0.2999999999999998 -1.9 0  0.3999999999999999 -1.9 0  0.5 -1.9 0  0.6000000000000001 -1.9 0  0.7000000000000002 -1.9 0  0.7999999999999998 -1.9 0  0.8999999999999999 -1.9 0  1 -1.9 0  1.1 -1.9 0  1.2 -1.9 0  1.3 -1.9 0  1.4 -1.9 0  1.5 -1.9 0  1.6 -1.9 0  1.7 -1.9 0  1.8 -1.9 0  1.9 -1.9 0  2 -1.9 0  -2 -1.8 0  -1.9 -1.8 0  -1.8 -1.8 0  -1.7 -1.8 0  -1.6 -1.8 0  -1.5 -1.8 0  -1.4 -1.8 0  -1.3 -1.8 0  -1.2 -1.8 0  -1.1 -1.8 0  -1 -1.8 0  -0.8999999999999999 -1.8 0  -0.8 -1.8 0  -0.7 -1.8 0  -0.6000000000000001 -1.8 0  -0.5 -1.8 0  -0.3999999999999999 -1.8 0  -0.3 -1.8 0  -0.2 -1.8 0  -0.1000000000000001 -1.8 0  0 -1.8 0  0.1000000000000001 -1.8 0  0.2000000000000002 -1.8 0  0.2999999999999998 -1.8 0  0.3999999999999999 -1.8 0  0.5 -1.8 0  0.6000000000000001 -1.8 0  0.7000000000000002 -1.8 0  0.7999999999999998 -1.8 0  0.8999999999999999 -1.8 0  1 -1.8 0  1.1 -1.8 0  1.2 -1.8 0  1.3 -1.8 0  1.4 -1.8 0  1.5 -1.8 0  1.6 -1.8 0  1.7 -1.8 0  1.8 -1.8 0  1.9 -1.8 0  2 -1.8 0  -2 -1.7 0  -1.9 -1.7 0  -1.8 -1.7 0  -1.7 -1.7 0  -1.6 -1.7 0  -1.5 -1.7 0  -1.4 -1.7 0  -1.3 -1.7 0  -1.2 -1.7 0  -1.1 -1.7 0  -1 -1.7 0  -0.8999999999999999 -1.7 0  -0.8 -1.7 0  -0.7 -1.7 0  -0.6000000000000001 -1.7 0  -0.5 -1.7 0  -0.3999999999999999 -1.7 0  -0.3 -1.7 0  -0.2 -1.7 0  -0.1000000000000001 -1.7 0  0 -1.7 0  0.1000000000000001 -1.7 0  0.2000000000000002 -1.7 0  0.2999999999999998 -1.7 0  0.3999999999999999 -1.7 0  0.5 -1.7 0  0.6000000000000001 -1.7 0  0.7000000000000002 -1.7 0  0.7999999999999998 -1.7 0  0.8999999999999999 -1.7 0  1 -1.7 0  1.1 -1.7 0  1.2 -1.7 0  1.3 -1.7 0  1.4 -1.7 0  1.5 -1.7 0  1.6 -1.7 0  1.7 -1.7 0  1.8 -1.7 0  1.9 -1.7 0  2 -1.7 0  -2 -1.6 0  -1.9 -1.6 0  -1.8 -1.6 0  -1.7 -1.6 0  -1.6 -1.6 0  -1.5 -1.6 0  -1.4 -1.6 0  -1.3 -1.6 0  -1.2 -1.6 0  -1.1 -1.6 0  -1 -1.6 0  -0.8999999999999999 -1.6 0  -0.8 -1.6 0  -0.7 -1.6 0  -0.6000000000000001 -1.6 0  -0.5 -1.6 0  -0.3999999999999999 -1.6 0  -0.3 -1.6 0  -0.2 -1.6 0  -0.1000000000000001 -1.6 0  0 -1.6 0  0.1000000000000001 -1.6 0  0.2000000000000002 -1.6 0  0.2999999999999998 -1.6 0  0.3999999999999999 -1.6 0  0.5 -1.6 0  0.6000000000000001 -1.6 0  0.7000000000000002 -1.6 0  0.7999999999999998 -1.6 0  0.8999999999999999 -1.6 0  1 -1.6 0  1.1 -1.6 0  1.2 -1.6 0  1.3 -1.6 0  1.4 -1.6 0  1.5 -1.6 0  1.6 -1.6 0  1.7 -1.6 0  1.8 -1.6 0  1.9 -1.6 0  2 -1.6 0  -2 -1.5 0  -1.9 -1.5 0  -1.8 -1.5 0  -1.7 -1.5 0  -1.6 -1.5 0  -1.5 -1.5 0  -1.4 -1.5 0  -1.3 -1.5 0  -1.2 -1.5 0  -1.1 -1.5 0  -1 -1.5 0  -0.8999999999999999 -1.5 0  -0.8 -1.5 0  -0.7 -1.5 0  -0.6000000000000001 -1.5 0  -0.5 -1.5 0  -0.3999999999999999 -1.5 0  -0.3 -1.5 0  -0.2 -1.5 0  -0.1000000000000001 -1.5 0  0 -1.5 0  0.1000000000000001 -1.5 0  0.2000000000000002 -1.5 0  0.2999999999999998 -1.5 0  0.3999999999999999 -1.5 0  0.5 -1.5 0  0.6000000000000001 -1.5 0  0.7000000000000002 -1.5 0  0.7999999999999998 -1.5 0  0.8999999999999999 -1.5 0  1 -1.5 0  1.1 -1.5 0  1.2 -1.5 0  1.3 -1.5 0  1.4 -1.5 0  1.5 -1.5 0  1.6 -1.5 0  1.7 -1.5 0  1.8 -1.5 0  1.9 -1.5 0  2 -1.5 0  -2 -1.4 0  -1.9 -1.4 0  -1.8 -1.4 0  -1.7 -1.4 0  -1.6 -1.4 0  -1.5 -1.4 0  -1.4 -1.4 0  -1.3 -1.4 0  -1.2 -1.4 0  -1.1 -1.4 0  -1 -1.4 0  -0.8999999999999999 -1.4 0  -0.8 -1.4 0  -0.7 -1.4 0  -0.6000000000000001 -1.4 0  -0.5 -1.4 0  -0.3999999999999999 -1.4 0  -0.3 -1.4 0  -0.2 -1.4 0  -0.1000000000000001 -1.4 0  0 -1.4 0  0.1000000000000001 -1.4 0  0.2000000000000002 -1.4 0  0.2999999999999998 -1.4 0  0.3999999999999999 -1.4 0  0.5 -1.4 0  0.6000000000000001 -1.4 0  0.7000000000000002 -1.4 0  0.7999999999999998 -1.4 0  0.8999999999999999 -1.4 0  1 -1.4 0  1.1 -1.4 0  1.2 -1.4 0  1.3 -1.4 0  1.4 -1.4 0  1.5 -1.4 0  1.6 -1.4 0  1.7 -1.4 0  1.8 -1.4 0  1.9 -1.4 0  2 -1.4 0  -2 -1.3 0  -1.9 -1.3 0  -1.8 -1.3 0  -1.7 -1.3 0  -1.6 -1.3 0  -1.5 -1.3 0  -1.4 -1.3 0  -1.3 -1.3 0  -1.2 -1.3 0  -1.1 -1.3 0  -1 -1.3 0  -0.8999999999999999 -1.3 0  -0.8 -1.3 0  -0.7 -1.3 0  -0.6000000000000001 -1.3 0  -0.5 -1.3 0  -0.3999999999999999 -1.3 0  -0.3 -1.3 0  -0.2 -1.3 0  -0.1000000000000001 -1.3 0  0 -1.3 0  0.1000000000000001 -1.3 0  0.2000000000000002 -1.3 0  0.2999999999999998 -1.3 0  0.3999999999999999 -1.3 0  0.5 -1.3 0  0.6000000000000001 -1.3 0  0.7000000000000002 -1.3 0  0.7999999999999998 -1.3 0  0.8999999999999999 -1.3 0  1 -1.3 0  1.1 -1.3 0  1.2 -1.3 0  1.3 -1.3 0  1.4 -1.3 0  1.5 -1.3 0  1.6 -1.3 0  1.7 -1.3 0  1.8 -1.3 0  1.9 -1.3 0  2 -1.3 0  -2 -1.2 0  -1.9 -1.2 0  -1.8 -1.2 0  -1.7 -1.2 0  -1.6 -1.2 0  -1.5 -1.2 0  -1.4 -1.2 0  -1.3 -1.2 0  -1.2 -1.2 0  -1.1 -1.2 0  -1 -1.2 0  -0.8999999999999999 -1.2 0  -0.8 -1.2 0  -0.7 -1.2 0  -0.6000000000000001 -1.2 0  -0.5 -1.2 0  -0.3999999999999999 -1.2 0  -0.3 -1.2 0  -0.2 -1.2 0  -0.1000000000000001 -1.2 0  0 -1.2 0  0.1000000000000001 -1.2 0  0.2000000000000002 -1.2 0  0.2999999999999998 -1.2 0  0.3999999999999999 -1.2 0  0.5 -1.2 0  0.6000000000000001 -1.2 0  0.7000000000000002 -1.2 0  0.7999999999999998 -1.2 0  0.8999999999999999 -1.2 0  1 -1.2 0  1.1 -1.2 0  1.2 -1.2 0  1.3 -1.2 0  1.4 -1.2 0  1.5 -1.2 0  1.6 -1.2 0  1.7 -1.2 0  1.8 -1.2 0  1.9 -1.2 0  2 -1.2 0  -2 -1.1 0  -1.9 -1.1 0  -1.8 -1.1 0  -1.7 -1.1 0  -1.6 -1.1 0  -1.5 -1.1 0  -1.4 -1.1 0  -1.3 -1.1 0  -1.2 -1.1 0  -1.1 -1.1 0  -1 -1.1 0  -0.8999999999999999 -1.1 0  -0.8 -1.1 0  -0.7 -1.1 0  -0.6000000000000001 -1.1 0  -0.5 -1.1 0  -0.3999999999999999 -1.1 0  -0.3 -1.1 0  -0.2 -1.1 0  -0.1000000000000001 -1.1 0  0 -1.1 0  0.1000000000000001 -1.1 0  0.2000000000000002 -1.1 0  0.2999999999999998 -1.1 0  0.3999999999999999 -1.1 0  0.5 -1.1 0  0.6000000000000001 -1.1 0  0.7000000000000002 -1.1 0  0.7999999999999998 -1.1 0  0.8999999999999999 -1.1 0  1 -1.1 0  1.1 -1.1 0  1.2 -1.1 0  1.3 -1.1 0  1.4 -1.1 0  1.5 -1.1 0  1.6 -1.1 0  1.7 -1.1 0  1.8 -1.1 0  1.9 -1.1 0  2 -1.1 0  -2 -1 0  -1.9 -1 0  -1.8 -1 0  -1.7 -1 0  -1.6 -1 0  -1.5 -1 0  -1.4 -1 0  -1.3 -1 0  -1.2 -1 0  -1.1 -1 0  -1 -1 0  -0.8999999999999999 -1 0  -0.8 -1 0  -0.7 -1 0  -0.6000000000000001 -1 0  -0.5 -1 0  -0.3999999999999999 -1 0  -0.3 -1 0  -0.2 -1 0  -0.1000000000000001 -1 0  0 -1 0  0.1000000000000001 -1 0  0.2000000000000002 -1 0  0.2999999999999998 -1 0  0.3999999999999999 -1 0  0.5 -1 0  0.6000000000000001 -1 0  0.7000000000000002 -1 0  0.7999999999999998 -1 0  0.8999999999999999 -1 0  1 -1 0  1.1 -1 0  1.2 -1 0  1.3 -1 0  1.4 -1 0  1.5 -1 0  1.6 -1 0  1.7 -1 0  1.8 -1 0  1.9 -1 0  2 -1 0  -2 -0.8999999999999999 0  -1.9 -0.8999999999999999 0  -1.8 -0.8999999999999999 0  -1.7 -0.8999999999999999 0  -1.6 -0.8999999999999999 0  -1.5 -0.8999999999999999 0  -1.4 -0.8999999999999999 0  -1.3 -0.8999999999999999 0  -1.2 -0.8999999999999999 0  -1.1 -0.8999999999999999 0  -1 -0.8999999999999999 0  -0.8999999999999999 -0.8999999999999999 0  -0.8 -0.8999999999999999 0  -0.7 -0.8999999999999999 0  -0.6000000000000001 -0.8999999999999999 0  -0.5 -0.8999999999999999 0  -0.3999999999999999 -0.8999999999999999 0  -0.3 -0.8999999999999999 0  -0.2 -0.8999999999999999 0  -0.1000000000000001 -0.8999999999999999 0  0 -0.8999999999999999 0  0.1000000000000001 -0.8999999999999999 0  0.2000000000000002 -0.8999999999999999 0  0.2999999999999998 -0.8999999999999999 0  0.3999999999999999 -0.8999999999999999 0  0.5 -0.8999999999999999 0  0.6000000000000001 -0.8999999999999999 0  0.7000000000000002 -0.8999999999999999 0  0.7999999999999998 -0.8999999999999999 0  0.8999999999999999 -0.8999999999999999 0  1 -0.8999999999999999 0  1.1 -0.8999999999999999 0  1.2 -0.8999999999999999 0  1.3 -0.8999999999999999 0  1.4 -0.8999999999999999 0  1.5 -0.8999999999999999 0  1.6 -0.8999999999999999 0  1.7 -0.8999999999999999 0  1.8 -0.8999999999999999 0  1.9 -0.8999999999999999 0  2 -0.8999999999999999 0  -2 -0.8 0  -1.9 -0.8 0  -1.8 -0.8 0  -1.7 -0.8 0  -1.6 -0.8 0  -1.5 -0.8 0  -1.4 -0.8 0  -1.3 -0.8 0  -1.2 -0.8 0  -1.1 -0.8 0  -1 -0.8 0  -0.8999999999999999 -0.8 0  -0.8 -0.8 0  -0.7 -0.8 0  -0.6000000000000001 -0.8 0  -0.5 -0.8 0  -0.3999999999999999 -0.8 0  -0.3 -0.8 0  -0.2 -0.8 0  -0.1000000000000001 -0.8 0  0 -0.8 0  0.1000000000000001 -0.8 0  0.2000000000000002 -0.8 0  0.2999999999999998 -0.8 0  0.3999999999999999 -0.8 0  0.5 -0.8 0  0.6000000000000001 -0.8 0  0.7000000000000002 -0.8 0  0.7999999999999998 -0.8 0  0.8999999999999999 -0.8 0  1 -0.8 0  1.1 -0.8 0  1.2 -0.8 0  1.3 -0.8 0  1.4 -0.8 0  1.5 -0.8 0  1.6 -0.8 0  1.7 -0.8 0  1.8 -0.8 0  1.9 -0.8 0  2 -0.8 0  -2 -0.7 0  -1.9 -0.7 0  -1.8 -0.7 0  -1.7 -0.7 0  -1.6 -0.7 0  -1.5 -0.7 0  -1.4 -0.7 0  -1.3 -0.7 0  -1.2 -0.7 0  -1.1 -0.7 0  -1 -0.7 0  -0.8999999999999999 -0.7 0  -0.8 -0.7 0  -0.7 -0.7 0  -0.6000000000000001 -0.7 0  -0.5 -0.7 0  -0.3999999999999999 -0.7 0  -0.3 -0.7 0  -0.2 -0.7 0  -0.1000000000000001 -0.7 0  0 -0.7 0  0.1000000000000001 -0.7 0  0.2000000000000002 -0.7 0  0.2999999999999998 -0.7 0  0.3999999999999999 -0.7 0  0.5 -0.7 0  0.600000000000000
[...]
<PointData  Scalars="f_1726"> 
<DataArray  type="Float64"  Name="f_1726"  format="ascii">0.0000000000000000e+00  0.0000000000000000e+00  0.0000000000000000e+00  0.0000000000000000e+00  0.0000000000000000e+00  0.0000000000000000e+00  0.0000000000000000e+00  0.0000000000000000e+00  0.0000000000000000e+00  0.0000000000000000e+00  0.0000000000000000e+00  0.0000000000000000e+00  0.0000000000000000e+00  0.0000000000000000e+00  0.0000000000000000e+00  0.0000000000000000e+00  0.0000000000000000e+00  0.0000000000000000e+00  0.0000000000000000e+00  0.0000000000000000e+00  0.0000000000000000e+00  0.0000000000000000e+00  0.0000000000000000e+00  0.0000000000000000e+00  0.0000000000000000e+00  0.0000000000000000e+00  0.0000000000000000e+00  0.0000000000000000e+00  0.0000000000000000e+00  0.0000000000000000e+00  0.0000000000000000e+00  0.0000000000000000e+00  0.0000000000000000e+00  0.0000000000000000e+00  0.0000000000000000e+00  0.0000000000000000e+00  0.0000000000000000e+00  0.0000000000000000e+00  0.0000000000000000e+00  0.0000000000000000e+00  0.0000000000000000e+00  0.0000000000000000e+00  -3.0588584749323786e-11  -3.5646689353052191e-11  2.3424453520970207e-10  -5.6446291398854026e-11  -1.1863667525545218e-09  6.3917975444070256e-10  5.8372632413027120e-09  8.0310604964355258e-10  -2.4229419807078915e-08  -4.8346572924994772e-08  -4.2615272014954839e-08  -1.4688266914735165e-08  3.9751759267932410e-09  4.0272686472047705e-09  -3.8226188474002882e-10  -7.7190351374764104e-10  1.2932350299926214e-10  1.1880652630478010e-10  -4.6199225416673084e-11  -8.4404533885145604e-12  1.0058493598882603e-11  -1.9731698522356160e-12  -8.6024226381510668e-13  6.4258868672128290e-13  -1.4107150729170434e-13  -3.2050248987079953e-14  3.5401777418556376e-14  -1.2699101866393858e-14  1.4904892764287460e-15  9.5418189613509009e-16  -7.1117188868134675e-16  2.6651420980777382e-16  -5.8938569628733697e-17  4.8798089690513364e-19  6.9104940240117398e-18  -4.1569260352025730e-18  1.6913255756381475e-18  -5.6065809393373615e-19  1.7772495134500781e-19  0.0000000000000000e+00  0.0000000000000000e+00  -3.5646689353052172e-11  2.5635671601078325e-10  -2.2805454763634704e-10  -1.1230334529467743e-09  2.3583523035438326e-09  4.4077113320455686e-09  -1.2698629683347052e-08  -2.4805397473887690e-08  3.6986618394655430e-08  1.5852419224559798e-07  2.0695191089011111e-07  1.2120590581265451e-07  9.8033580854212181e-09  -2.3496165695328758e-08  -5.3407300172159410e-09  4.3622466718550197e-09  7.3802046272474605e-10  -8.7383560937891282e-10  3.9894050857178385e-11  1.3698693948979885e-10  -4.6165246704138850e-11  -6.6764769786192740e-12  9.6296783699271962e-12  -2.7854416337320138e-12  -2.5949002004059583e-13  5.2284065946243234e-13  -2.0850827790067596e-13  2.9001022089960096e-14  1.3802013300933644e-14  -1.1117174902498561e-14  4.1881285849618593e-15  -8.9418799144773411e-16  -1.6697467758496667e-17  1.1790846487005374e-16  -6.6890420676431166e-17  2.6150361413334812e-17  -8.2692282471553748e-18  2.2462954820974732e-18  -5.6065809393373673e-19  0.0000000000000000e+00  0.0000000000000000e+00  2.3424453520970248e-10  -2.2805454763634751e-10  -1.0267341174772325e-09  3.0407318505149103e-09  1.6775743812517150e-09  -1.8039278748851488e-08  1.1193384834232283e-09  9.0114285792245821e-08  3.4222550162288095e-08  -3.6656177799804601e-07  -7.8009790974685340e-07  -6.9150553053003533e-07  -2.2440949894332841e-07  7.3734560844190553e-08  6.0063634295806031e-08  -1.0673030727807751e-08  -1.0748473264847484e-08  3.1720348202631500e-09  1.2718572420543203e-09  -8.3710318389678938e-10  3.4099543877401318e-11  1.2173731823000465e-10  -4.9930177131983369e-11  1.4843060961864780e-12  6.7549744234444941e-12  -3.2752726476995489e-12  6.0334823017068413e-13  1.5324697127183152e-13  -1.6035438927063675e-13  6.4981431687224072e-14  -1.4861361678314634e-14  1.7085073101233977e-16  1.7130702200586999e-15  -1.0158422672624913e-15  4.0331267418050358e-16  -1.2877214101041323e-16  3.4895348616505565e-17  -8.2692282471553379e-18  1.6913255756381417e-18  0.0000000000000000e+00  0.0000000000000000e+00  -5.6446291398853768e-11  -1.1230334529467762e-09  3.0407318505149144e-09  5.7066211536547443e-10  -1.8476739235922287e-08  2.1039704055479844e-08  8.0645035234793112e-08  -1.4707883306759081e-07  -4.0635472772630426e-07  4.4180452397200995e-07  2.3475517070193382e-06  3.1641317953052276e-06  1.8126565522988381e-06  8.3631955243056766e-08  -3.5997509760506705e-07  -5.0906607614281546e-08  6.7972001985523322e-08  2.0456539645292834e-09  -1.2095219825121741e-08  2.5188516017677159e-09  1.2402359672176201e-09  -8.1001985722078983e-10  1.0868401756688103e-10  7.7959900371248587e-11  -4.9752910026696753e-11  1.1694263762554543e-11  1.3159943605986688e-12  -2.2612284221891865e-12  1.0061933661402677e-12  -2.4870922868191098e-13  1.0502514670614767e-14  2.4621070470185570e-14  -1.5494968348624828e-14  6.2761558767429351e-15  -2.0214816753716741e-15  5.4981487833664060e-16  -1.2877214101041385e-16  2.6150361413334843e-17  -4.1569260352025907e-18  0.0000000000000000e+00  0.0000000000000000e+00  -1.1863667525545239e-09  2.3583523035438346e-09  1.6775743812517188e-09  -1.8476739235922317e-08  2.7480136299130826e-08  6.0791877727638369e-08  -2.3221383132911623e-07  -1.2908872368601167e-07  1.2527467263639503e-06  8.6253252948499513e-07  -5.1021189357275678e-06  -1.1792462558549023e-05  -1.0510341642653057e-05  -3.1395748002221861e-06  1.2773459539995200e-06  8.0028214865243965e-07  -2.3119303733233891e-07  -1.2323723110406419e-07  6.0491832701625762e-08  6.5123608648040885e-09  -1.1662894653185815e-08  2.8692235283436043e-09  7.1353757589646076e-10  -7.2048452439680498e-10  2.1308262429756366e-10  2.7964932980305147e-12  -3.0875644484984155e-11  1.5435470247850382e-11  -4.1382080838581739e-12  2.9309474822964389e-13  3.4892596989801381e-13  -2.3593397797912097e-13  9.7713323899114373e-14  -3.1755556289546845e-14  8.6560689376562174e-15  -2.0214816753716710e-15  4.0331267418050452e-16  -6.6890420676431043e-17  6.9104940240117374e-18  0.0000000000000000e+00  0.0000000000000000e+00  6.3917975444070421e-10  4.4077113320455761e-09  -1.8039278748851505e-08  2.1039704055479864e-08  6.0791877727638475e-08  -2.5084046493997536e-07  6.7928869779821730e-08  1.3222401963941559e-06  -1.4204454768869585e-06  -6.4591754254299302e-06  4.6983964647750238e-06  3.4550625764232288e-05  4.8383091079578416e-05  2.6953360092818662e-05  1.3166475643499146e-07  -5.4104142907624879e-06  -2.5503870988956365e-07  9.9052913273319139e-07  -1.1097752223364730e-07  -1.3965198616939067e-07  5.7894641956128149e-08  2.3970952287308592e-09  -9.7184707060745705e-09  3.6803861467585066e-09  -2.4373598816250027e-10  -4.0118393966300670e-10  2.3370258624798612e-10  -6.8388347344283290e-11  6.7124532078122810e-12  4.8432666724696189e-12  -3.5810502952384093e-12  1.5212676929138201e-12  -4.9933878490409487e-13  1.3642097616297974e-13  -3.1755556289546845e-14  6.2761558767429280e-15  -1.0158422672624940e-15  1.1790846487005379e-16  4.8798089690507143e-19  0.0000000000000000e+00  0.0000000000000000e+00  5.8372632413027186e-09  -1.2698629683347077e-08  1.1193384834232353e-09  8.0645035234793205e-08  -2.3221383132911652e-07  6.7928869779821280e-08  1.2579452589690490e-06  -2.5107337851014360e-06  -3.9873272281853867e-06  1.6457585301165687e-05  1.8297280123284680e-05  -6.9664732074476888e-05  -1.7882327486536183e-04  -1.6031731311703641e-04  -4.2950354006589458e-05  2.1859946873857749e-05  9.9736400884830115e-06  -4.4023302804560382e-06  -1.0860090236219865e-06  9.7182051019984834e-07  -1.0331416840847297e-07  -1.1616257425405969e-07  6.0156335944745514e-08  -8.3311170564145726e-09  -4.7941067672615520e-09  3.4749160497437388e-09  -1.1214856804533963e-09  1.4021928245159403e-10  6.5224631841413056e-11  -5.4130786672830519e-11  2.3682516390010241e-11  -7.8611643649034804e-12  2.1530785498037606e-12  -4.9933878490409578e-13  9.7713323899114550e-14  -1.5494968348624853e-14  1.7130702200587102e-15  -1.6697467758497845e-17  -5.8938569628733500e-17  0.0000000000000000e+00  0.0000000000000000e+00  8.0310604964354411e-10  -2.4805397473887707e-08  9.0114285792245900e-08  -1.4707883306759100e-07  -1.2908872368601204e-07  1.3222401963941582e-06  -2.5107337851014352e-06  -2.7087429842266640e-06  1.9290170109378335e-05  -7.7818764239985592e-06  -9.9366810580547613e-05  3.7919115133338953e-05  5.0706433006019336e-04  7.4414640174197053e-04  3.9991251622272981e-04  -1.7836403866398284e-05  -7.9377713511435112e-05  4.6816185083317981e-06  1.3074314681532270e-05  -3.5909964755378024e-06  -1.0641914960638978e-06  9.1805444744636675e-07  -1.9795458642631254e-07  -4.8352125220997969e-08  5.0335131691184568e-08  -1.8218591586578529e-08  2.7765566984686285e-09  8.3804352563319665e-10  -8.1383690063836433e-10  3.6861847357707031e-10  -1.2392986059662408e-10  3.4037509092376393e-11  -7.8611643649034465e-12  1.5212676929138146e-12  -2.3593397797912017e-13  2.4621070470185434e-14  1.7085073101235659e-16  -8.9418799144773253e-16  2.6651420980777328e-16  0.0000000000000000e+00  0.0000000000000000e+00  -2.4229419807078922e-08  3.6986618394655496e-08  3.4222550162288108e-08  -4.0635472772630463e-07  1.2527467263639525e-06  -1.4204454768869593e-06  -3.9873272281853969e-06  1.9290170109378345e-05  -1.7232544664599030e-05  -8.4785930722314616e-05  1.9556524725860522e-04  3.5498752234329342e-04  -9.2259196519532726e-04  -2.7237997364040934e-03  -2.4575267066544401e-03  -5.6620523526418126e-04  3.6920531677760464e-04  1.0888821345334498e-04  -7.5662155172170084e-05  -2.2246596724133812e-06  1.2628341951356159e-05  -4.0154917364993442e-06  -2.8319266851698950e-07  7.0037863321956226e-07  -2.9233654917741646e-07  5.3070442676051446e-08  9.9245515751373468e-09  -1.2147285343098200e-08  5.7356751785100684e-09  -1.9568724058196929e-09  5.3913716498260010e-10  -1.2392986059662465e-10  2.3682516390010277e-11  -3.5810502952384270e-12  3.4892596989801739e-13  1.0502514670614041e-14  -1.4861361678314564e-14  4.1881285849618380e-15  -7.1117188868134468e-16  0.0000000000000000e+00  0.0000000000000000e+00  -4.8346572924994738e-08  1.5852419224559787e-07  -3.6656177799804628e-07  4.4180452397201043e-07  8.6253252948499566e-07  -6.4591754254299396e-06  1.6457585301165711e-05  -7.7818764239985304e-06  -8.4785930722314684e-05  2.3523369192066882e-04  1.0598874336323066e-04  -1.4575962554702166e-03  9.1459163649853962e-06  7.4053676204686118e-03  1.1536276566882837e-02  5.9091184548890176e-03  -6.2360831771735253e-04  -1.1162061733641056e-03  2.0642379862979385e-04  1.4199395406585885e-04  -7.2567467524784374e-05  3.7811998501063302e-06  9.1059294504597494e-06  -4.6099912240534353e-06  9.8849374108236675e-07  9.8942195977696123e-08  -1.7948849945379262e-07  8.9195457806437757e-08  -3.0958086641854389e-08  8.5594232345535279e-09  -1.9568724058196900e-09  3.6861847357707124e-10  -5.4130786672830455e-11  4.8432666724696213e-12  2.9309474822964430e-13  -2.4870922868191087e-13  6.4981431687224286e-14  -1.1117174902498553e-14  9.5418189613509167e-16  0.0000000000000000e+00  0.0000000000000000e+00  -4.2615272014954792e-08  2.0695191089011096e-07  -7.8009790974685276e-07  2.3475517070193357e-06  -5.1021189357275678e-06  4.6983964647750280e-06  1.8297280123284694e-05  -9.9366810580547776e-05  1.9556524725860528e-04  1.0598874336323093e-04  -1.4635311064132711e-03  1.8517533913624297e-03  6.4727045299881932e-03  -1.1563907942394522e-02  -4.1738241232388264e-02  -3.7923369445144316e-02  -6.9566789989606408e-03  6.1234126983327579e-03  8.2131356329313615e-04  -1.1504978742257208e-03  1.9495937299844469e-04  1.0357557812430087e-04  -7.0784876898079477e-05  1.8027158612012879e-05  5.3903733605269631e-07  -2.6135425346792022e-06  1.3857331546572553e-06  -4.9088232523487184e-07  1.3627115742287144e-07  -3.0958086641854409e-08  5.7356751785100676e-09  -8.1383690063836764e-10  6.5224631841413353e-11  6.7124532078122067e-12  -4.1382080838581593e-12  1.0061933661402634e-12  -1.6035438927063650e-13  1.3802013300933528e-14  1.4904892764287618e-15  0.0000000000000000e+00  0.0000000000000000e+00  -1.4688266914735139e-08  1.2120590581265432e-07  -6.9150553053003480e-07  3.1641317953052259e-06  -1.1792462558549013e-05  3.4550625764232294e-05  -6.9664732074476929e-05  3.7919115133339095e-05  3.5498752234329391e-04  -1.4575962554702173e-03  1.8517533913624286e-03  4.9235569379607871e-03  -1.9659599581384822e-02  -9.6736254984872150e-03  1.0716975143409559e-01  1.8089048062671159e-01  8.6593205952656696e-02  -1.5878794642733788e-02  -1.4415222131866731e-02  5.0485741698661065e-03  8.1398736321478611e-04  -1.0388079884172650e-03  3.2221165309685175e-04  -9.9104629389756704e-06  -3.7208835242674449e-05  2.1493606388941561e-05  -7.8054129322059634e-06  2.1770174003465153e-06  -4.9088232523487268e-07  8.9195457806437969e-08  -1.2147285343098234e-08  8.3804352563320502e-10  1.4021928245159302e-10  -6.8388347344283213e-11  1.5435470247850369e-11  -2.2612284221891833e-12  1.5324697127183180e-13  2.9001022089960065e-14  -1.2699101866393853e-14  0.0000000000000000e+00  0.0000000000000000e+00  3.9751759267932534e-09  9.8033580854211156e-09  -2.2440949894332782e-07  1.8126565522988351e-06  -1.0510341642653051e-05  4.8383091079578383e-05  -1.7882327486536177e-04  5.0706433006019326e-04  -9.2259196519532834e-04  9.1459163649843290e-06  6.4727045299881967e-03  -1.9659599581384819e-02  5.8785842547367049e-03  1.1109181242924014e-01  -1.2869703112861591e-01  -6.4507310611847302e-01  -5.9075498757152656e-01  -7.2308069816199708e-02  9.8321375310656073e-02  -3.5653476003574833e-03  -1.3951019646935597e-02  5.6228004810648944e-03  -4.9415230712059901e-04  -5.1026492876336186e-04  3.3245481381286729e-04  -1.2454877168776459e-04  3.4931357089029469e-05  -7.8054129322059363e-06  1.3857331546572517e-06  -1.7948849945379203e-07  9.9245515751372658e-09  2.7765566984686417e-09  -1.1214856804533938e-09  2.3370258624798550e-10  -3.0875644484983981e-11  1.3159943605986414e-12  6.0334823017068928e-13  -2.0850827790067606e-13  3.5401777418556376e-14  0.0000000000000000e+00  0.0000000000000000e+00  4.0272686472047663e-09  -2.3496165695328755e-08  7.3734560844190632e-08  8.3631955243055627e-08  -3.1395748002221789e-06  2.6953360092818635e-05  -1.6031731311703630e-04  7.4414640174197053e-04  -2.7237997364040925e-03  7.4053676204686161e-03  -1.1563907942394525e-02  -9.6736254984872427e-03  1.1109181242924014e-01  -2.1827898550178884e-01  -3.1997436634763421e-01  1.5216817873503057e+00  2.8870510162123977e+00  1.2459548884675617e+00  -3.5958102579455126e-01  -1.4947444687579600e-01  9.4489000976997611e-02  -1.4107961914912290e-02  -6.5213427056677901e-03  5.1170177432566504e-03  -1.9964377824647161e-03  5.6369351101798648e-04  -1.2454877168776527e-04  2.1493606388941622e-05  -2.6135425346792192e-06  9.8942195977699247e-08  5.3070442676050817e-08  -1.8218591586578490e-08  3.4749160497437202e-09  -4.0118393966300468e-10  2.7964932980302905e-12  1.1694263762554540e-11  -3.2752726476995549e-12  5.2284065946243103e-13  -3.2050248987079802e-14  0.0000000000000000e+00  0.0000000000000000e+00  -3.8226188474003068e-10  -5.3407300172159302e-09  6.0063634295805978e-08  -3.5997509760506700e-07  1.2773459539995219e-06  1.3166475643497092e-07  -4.2950354006589336e-05  3.9991251622272959e-04  -2.4575267066544388e-03  1.1536276566882827e-02  -4.1738241232388285e-02  1.0716975143409566e-01  -1.2869703112861597e-01  -3.1997436634763410e-01  1.7352209616178929e+00  -9.7547762074937949e-01  -1.0102125652762252e+01  -9.3361924675209416e+00  -3.5988929933822800e-01  1.4630788056415840e+00  -3.4212655065774805e-01  -7.0637158656337323e-02  7.8027045473023110e-02  -3.2197873646797451e-02  9.1671452101724313e-03  -1.9964377824647139e-03  3.3245481381286810e-04  -3.7208835242674408e-05  5.3903733605269049e-07  9.8849374108236802e-07  -2.9233654917741636e-07  5.0335131691184714e-08  -4.7941067672615470e-09  -2.4373598816250052e-10  2.1308262429756379e-10  -4.9752910026696701e-11  6.7549744234445078e-12  -2.5949002004059573e-13  -1.4107150729170437e-13  0.0000000000000000e+00  0.0000000000000000e+00  -7.7190351374764104e-10  4.3622466718550238e-09  -1.0673030727807778e-08  -5.0906607614281347e-08  8.0028214865243880e-07  -5.4104142907624904e-06  2.1859946873857779e-05  -1.7836403866398559e-05  -5.6620523526417995e-04  5.9091184548890107e-03  -3.7923369445144288e-02  1.8089048062671148e-01  -6.4507310611847291e-01  1.5216817873503057e+00  -9.7547762074937927e-01  -7.8880964446315094e+00  2.0581217173306630e+01  4.7541427049343383e+01  1.7074840908876631e+01  -7.6203142110842474e+00  -3.7681089201460399e-01  1.1664727736320031e+00  -5.2380693733660821e-01  1.5075085659505888e-01  -3.2197873646797451e-02  5.1170177432566478e-03  -5.1026492876336392e-04  -9.9104629389753756e-06  1.8027158612012818e-05  -4.6099912240534175e-06  7.0037863321955813e-07  -4.8352125220997459e-08  -8.3311170564146686e-09  3.6803861467585248e-09  -7.2048452439680674e-10  7.7959900371248639e-11  1.4843060961864820e-12  -2.7854416337320130e-12  6.4258868672128341e-13  0.0000000000000000e+00  0.0000000000000000e+00  1.2932350299926261e-10  7.3802046272474481e-10  -1.0748473264847484e-08  6.7972001985523336e-08  -2.3119303733233917e-07  -2.5503870988956275e-07  9.9736400884830132e-06  -7.9377713511435139e-05  3.6920531677760496e-04  -6.2360831771735416e-04  -6.9566789989606295e-03  8.6593205952656654e-02  -5.9075498757152634e-01  2.8870510162123977e+00  -1.0102125652762252e+01  2.0581217173306634e+01  8.5047945475659290e+00  -1.6189589099441727e+02  -1.5128266327085754e+02  1.3207962645174376e+01  1.6568212947526231e+01  -8.6360737571459456e+00  2.5224220588287758e+00  -5.2380693733660899e-01  7.8027045473023290e-02  -6.5213427056678248e-03  -4.9415230712059369e-04  3.2221165309685040e-04  -7.0784876898079369e-05  9.1059294504597341e-06  -2.8319266851698828e-07  -1.9795458642631307e-07  6.0156335944745461e-08  -9.7184707060745705e-09  7.1353757589645859e-10  1.0868401756688155e-10  -4.9930177131983615e-11  9.6296783699272043e-12  -8.6024226381510890e-13  0.0000000000000000e+00  0.0000000000000000e+00  1.1880652630478018e-10  -8.7383560937891417e-10  3.1720348202631553e-09  2.0456539645292834e-09  -1.2323723110406422e-07  9.9052913273319203e-07  -4.4023302804560433e-06  4.6816185083318125e-06  1.0888821345334497e-04  -1.1162061733641067e-03  6.1234126983327648e-03  -1.5878794642733833e-02  -7.2308069816199499e-02  1.2459548884675602e+00  -9.3361924675209380e+00  4.7541427049343383e+01  -1.6189589099441727e+02  2.2998922102648240e+02  8.3951143974056822e+02  1.9164707043710774e+02  -1.4574050902295525e+02  4.3521919068356929e+01  -8.6360737571459154e+00  1.1664727736319995e+00  -7.0637158656336879e-02  -1.4107961914912294e-02  5.6228004810649065e-03  -1.0388079884172622e-03  1.0357557812430046e-04  3.7811998501064250e-06  -4.0154917364993543e-06  9.1805444744637056e-07  -1.1616257425405987e-07  2.3970952287308998e-09  2.8692235283436001e-09  -8.1001985722078797e-10  1.2173731823000470e-10  -6.6764769786192263e-12  -1.9731698522356205e-12  0.0000000000000000e+00  0.0000000000000000e+00  -4.6199225416673155e-11  3.9894050857178598e-11  1.2718572420543209e-09  -1.2095219825121746e-08  6.0491832701625775e-08  -1.1097752223364736e-07  -1.0860090236219865e-06  1.3074314681532277e-05  -7.5662155172170138e-05  2.0642379862979406e-04  8.2131356329313723e-04  -1.4415222131866754e-02  9.8321375310656170e-02  -3.5958102579455170e-01  -3.5988929933822572e-01  1.7074840908876624e+01  -1.5128266327085757e+02  8.3951143974056856e+02  -2.7306129917971743e+03  -2.5894625375215555e+03  8.0441172702976053e+02  -1.4574050902295591e+02  1.6568212947526291e+01  -3.7681089201461876e-01  -3.4212655065774533e-01  9.4489000976997042e-02  -1.3951019646935559e-02  8.1398736321477397e-04  1.9495937299844653e-04  -7.2567467524784659e-05  1.2628341951356177e-05  -1.0641914960639018e-06  -1.0331416840847281e-07  5.7894641956128195e-08  -1.166289465318583