<?xml version="1.0"?>
<VTKFile type="UnstructuredGrid"  version="0.1"  >
<UnstructuredGrid>
<Piece  NumberOfPoints="1681" NumberOfCells="3200">
<Points>
<DataArray  type="Float64"  NumberOfComponents="3"  format="ascii">-2 -2 0  -1.9 -2 0  -1.8 -2 0  -1.7 -2 0  -1.6 -2 0  -1.5 -2 0  -1.4 -2 0  -1.3 -2 0  -1.2 -2 0  -1.1 -2 0  -1 -2 0  -0.8999999999999999 -2 0  -0.8 -2 0  -0.7 -2 0  -0.6000000000000001 -2 0  -0.5 -2 0  -0.3999999999999999 -2 0  -0.3 -2 0  -0.2 -2 0  -0.1000000000000001 -2 0  0 -2 0  0.1000000000000001 -2 0  0.2000000000000002 -2 0  0.2999999999999998 -2 0  0.3999999999999999 -2 0  0.5 -2 0  0.6000000000000001 -2 0  0.7000000000000002 -2 0  0.7999999999999998 -2 0  0.8999999999999999 -2 0  1 -2 0  1.1 -2 0  1.2 -2 0  1.3 -2 0  1.4 -2 0  1.5 -2 0  1.6 -2 0  1.7 -2 0  1.8 -2 0  1.9 -2 0  2 -2 0  -2 -1.9 0  -1.9 -1.9 0  -1.8 -1.9 0  -1.7 -1.9 0  -1.6 -1.9 0  -1.5 -1.9 0  -1.4 -1.9 0  -1.3 -1.9 0  -1.2 -1.9 0  -1.1 -1.9 0  -1 -1.9 0  -0.8999999999999999 -1.9 0  -0.8 -1.9 0  -0.7 -1.9 0  -0.6000000000000001 -1.9 0  -0.5 -1.9 0  -0.3999999999999999 -1.9 0  -0.3 -1.9 0  -0.2 -1.9 0  -0.1000000000000001 -1.9 0  0 -1.9 0  0.1000000000000001 -1.9 0  0.2000000000000002 -1.9 0  0.2999999999999998 -1.9 0  0.3999999999999999 -1.9 0  0.5 -1.9 0  0.6000000000000001 -1.9 0  0.7000000000000002 -1.9 0  0.7999999999999998 -1.9 0  0.8999999999999999 -1.9 0  1 -1.9 0  1.1 -1.9 0  1.2 -1.9 0  1.3 -1.9 0  1.4 -1.9 0  1.5 -1.9 0  1.6 -1.9 0  1.7 -1.9 0  1.8 -1.9 0  1.9 -1.9 0  2 -1.9 0  -2 -1.8 0  -1.9 -1.8 0  -1.8 -1.8 0  -1.7 -1.8 0  -1.6 -1.8 0  -1.5 -1.8 0  -1.4 -1.8 0  -1.3 -1.8 0  -1.2 -1.8 0  -1.1 -1.8 0  -1 -1.8 0  -0.8999999999999999 -1.8 0  -0.8 -1.8 0  -0.7 -1.8 0  -0.6000000000000001 -1.8 0  -0.5 -1.8 0  -0.3999999999999999 -1.8 0  -0.3 -1.8 0  -0.2 -1.8 0  -0.1000000000000001 -1.8 0  0 -1.8 0  0.1000000000000001 -1.8 0  0.2000000000000002 -1.8 0  0.2999999999999998 -1.8 0  0.3999999999999999 -1.8 0  0.5 -1.8 0  0.6000000000000001 -1.8 0  0.7000000000000002 -1.8 0  0.7999999999999998 -1.8 0  0.8999999999999999 -1.8 0  1 -1.8 0  1.1 -1.8 0  1.2 -1.8 0  1.3 -1.8 0  1.4 -1.8 0  1.5 -1.8 0  1.6 -1.8 0  1.7 -1.8 0  1.8 -1.8 0  1.9 -1.8 0  2 -1.8 0  -2 -1.7 0  -1.9 -1.7 0  -1.8 -1.7 0  -1.7 -1.7 0  -1.6 -1.7 0  -1.5 -1.7 0  -1.4 -1.7 0  -1.3 -1.7 0  -1.2 -1.7 0  -1.1 -1.7 0  -1 -1.7 0  -0.8999999999999999 -1.7 0  -0.8 -1.7 0  -0.7 -1.7 0  -0.6000000000000001 -1.7 0  -0.5 -1.7 0  -0.3999999999999999 -1.7 0  -0.3 -1.7 0  -0.2 -1.7 0  -0.1000000000000001 -1.7 0  0 -1.7 0  0.1000000000000001 -1.7 0  0.2000000000000002 -1.7 0  0.2999999999999998 -1.7 0  0.3999999999999999 -1.7 0  0.5 -1.7 0  0.6000000000000001 -1.7 0  0.7000000000000002 -1.7 0  0.7999999999999998 -1.7 0  0.8999999999999999 -1.7 0  1 -1.7 0  1.1 -1.7 0  1.2 -1.7 0  1.3 -1.7 0  1.4 -1.7 0  1.5 -1.7 0  1.6 -1.7 0  1.7 -1.7 0  1.8 -1.7 0  1.9 -1.7 0  2 -1.7 0  -2 -1.6 0  -1.9 -1.6 0  -1.8 -1.6 0  -1.7 -1.6 0  -1.6 -1.6 0  -1.5 -1.6 0  -1.4 -1.6 0  -1.3 -1.6 0  -1.2 -1.6 0  -1.1 -1.6 0  -1 -1.6 0  -0.8999999999999999 -1.6 0  -0.8 -1.6 0  -0.7 -1.6 0  -0.6000000000000001 -1.6 0  -0.5 -1.6 0  -0.3999999999999999 -1.6 0  -0.3 -1.6 0  -0.2 -1.6 0  -0.1000000000000001 -1.6 0  0 -1.6 0  0.1000000000000001 -1.6 0  0.2000000000000002 -1.6 0  0.2999999999999998 -1.6 0  0.3999999999999999 -1.6 0  0.5 -1.6 0  0.6000000000000001 -1.6 0  0.7000000000000002 -1.6 0  0.7999999999999998 -1.6 0  0.8999999999999999 -1.6 0  1 -1.6 0  1.1 -1.6 0  1.2 -1.6 0  1.3 -1.6 0  1.4 -1.6 0  1.5 -1.6 0  1.6 -1.6 0  1.7 -1.6 0  1.8 -1.6 0  1.9 -1.6 0  2 -1.6 0  -2 -1.5 0  -1.9 -1.5 0  -1.8 -1.5 0  -1.7 -1.5 0  -1.6 -1.5 0  -1.5 -1.5 0  -1.4 -1.5 0  -1.3 -1.5 0  -1.2 -1.5 0  -1.1 -1.5 0  -1 -1.5 0  -0.8999999999999999 -1.5 0  -0.8 -1.5 0  -0.7 -1.5 0  -0.6000000000000001 -1.5 0  -0.5 -1.5 0  -0.3999999999999999 -1.5 0  -0.3 -1.5 0  -0.2 -1.5 0  -0.1000000000000001 -1.5 0  0 -1.5 0  0.1000000000000001 -1.5 0  0.2000000000000002 -1.5 0  0.2999999999999998 -1.5 0  0.3999999999999999 -1.5 0  0.5 -1.5 0  0.6000000000000001 -1.5 0  0.7000000000000002 -1.5 0  0.7999999999999998 -1.5 0  0.8999999999999999 -1.5 0  1 -1.5 0  1.1 -1.5 0  1.2 -1.5 0  1.3 -1.5 0  1.4 -1.5 0  1.5 -1.5 0  1.6 -1.5 0  1.7 -1.5 0  1.8 -1.5 0  1.9 -1.5 0  2 -1.5 0  -2 -1.4 0  -1.9 -1.4 0  -1.8 -1.4 0  -1.7 -1.4 0  -1.6 -1.4 0  -1.5 -1.4 0  -1.4 -1.4 0  -1.3 -1.4 0  -1.2 -1.4 0  -1.1 -1.4 0  -1 -1.4 0  -0.8999999999999999 -1.4 0  -0.8 -1.4 0  -0.7 -1.4 0  -0.6000000000000001 -1.4 0  -0.5 -1.4 0  -0.3999999999999999 -1.4 0  -0.3 -1.4 0  -0.2 -1.4 0  -0.1000000000000001 -1.4 0  0 -1.4 0  0.1000000000000001 -1.4 0  0.2000000000000002 -1.4 0  0.2999999999999998 -1.4 0  0.3999999999999999 -1.4 0  0.5 -1.4 0  0.6000000000000001 -1.4 0  0.7000000000000002 -1.4 0  0.7999999999999998 -1.4 0  0.8999999999999999 -1.4 0  1 -1.4 0  1.1 -1.4 0  1.2 -1.4 0  1.3 -1.4 0  1.4 -1.4 0  1.5 -1.4 0  1.6 -1.4 0  1.7 -1.4 0  1.8 -1.4 0  1.9 -1.4 0  2 -1.4 0  -2 -1.3 0  -1.9 -1.3 0  -1.8 -1.3 0  -1.7 -1.3 0  -1.6 -1.3 0  -1.5 -1.3 0  -1.4 -1.3 0  -1.3 -1.3 0  -1.2 -1.3 0  -1.1 -1.3 0  -1 -1.3 0  -0.8999999999999999 -1.3 0  -0.8 -1.3 0  -0.7 -1.3 0  -0.6000000000000001 -1.3 0  -0.5 -1.3 0  -0.3999999999999999 -1.3 0  -0.3 -1.3 0  -0.2 -1.3 0  -0.1000000000000001 -1.3 0  0 -1.3 0  0.1000000000000001 -1.3 0  0.2000000000000002 -1.3 0  0.2999999999999998 -1.3 0  0.3999999999999999 -1.3 0  0.5 -1.3 0  0.6000000000000001 -1.3 0  0.7000000000000002 -1.3 0  0.7999999999999998 -1.3 0  0.8999999999999999 -1.3 0  1 -1.3 0  1.1 -1.3 0  1.2 -1.3 0  1.3 -1.3 0  1.4 -1.3 0  1.5 -1.3 0  1.6 -1.3 0  1.7 -1.3 0  1.8 -1.3 0  1.9 -1.3 0  2 -1.3 0  -2 -1.2 0  -1.9 -1.2 0  -1.8 -1.2 0  -1.7 -1.2 0  -1.6 -1.2 0  -1.5 -1.2 0  -1.4 -1.2 0  -1.3 -1.2 0  -1.2 -1.2 0  -1.1 -1.2 0  -1 -1.2 0  -0.8999999999999999 -1.2 0  -0.8 -1.2 0  -0.7 -1.2 0  -0.6000000000000001 -1.2 0  -0.5 -1.2 0  -0.3999999999999999 -1.2 0  -0.3 -1.2 0  -0.2 -1.2 0  -0.1000000000000001 -1.2 0  0 -1.2 0  0.1000000000000001 -1.2 0  0.2000000000000002 -1.2 0  0.2999999999999998 -1.2 0  0.3999999999999999 -1.2 0  0.5 -1.2 0  0.6000000000000001 -1.2 0  0.7000000000000002 -1.2 0  0.7999999999999998 -1.2 0  0.8999999999999999 -1.2 0  1 -1.2 0  1.1 -1.2 0  1.2 -1.2 0  1.3 -1.2 0  1.4 -1.2 0  1.5 -1.2 0  1.6 -1.2 0  1.7 -1.2 0  1.8 -1.2 0  1.9 -1.2 0  2 -1.2 0  -2 -1.1 0  -1.9 -1.1 0  -1.8 -1.1 0  -1.7 -1.1 0  -1.6 -1.1 0  -1.5 -1.1 0  -1.4 -1.1 0  -1.3 -1.1 0  -1.2 -1.1 0  -1.1 -1.1 0  -1 -1.1 0  -0.8999999999999999 -1.1 0  -0.8 -1.1 0  -0.7 -1.1 0  -0.6000000000000001 -1.1 0  -0.5 -1.1 0  -0.3999999999999999 -1.1 0  -0.3 -1.1 0  -0.2 -1.1 0  -0.1000000000000001 -1.1 0  0 -1.1 0  0.1000000000000001 -1.1 0  0.2000000000000002 -1.1 0  0.2999999999999998 -1.1 0  0.3999999999999999 -1.1 0  0.5 -1.1 0  0.6000000000000001 -1.1 0  0.7000000000000002 -1.1 0  0.7999999999999998 -1.1 0  0.8999999999999999 -1.1 0  1 -1.1 0  1.1 -1.1 0  1.2 -1.1 0  1.3 -1.1 0  1.4 -1.1 0  1.5 -1.1 0  1.6 -1.1 0  1.7 -1.1 0  1.8 -1.1 0  1.9 -1.1 0  2 -1.1 0  -2 -1 0  -1.9 -1 0  -1.8 -1 0  -1.7 -1 0  -1.6 -1 0  -1.5 -1 0  -1.4 -1 0  -1.3 -1 0  -1.2 -1 0  -1.1 -1 0  -1 -1 0  -0.8999999999999999 -1 0  -0.8 -1 0  -0.7 -1 0  -0.6000000000000001 -1 0  -0.5 -1 0  -0.3999999999999999 -1 0  -0.3 -1 0  -0.2 -1 0  -0.1000000000000001 -1 0  0 -1 0  0.1000000000000001 -1 0  0.2000000000000002 -1 0  0.2999999999999998 -1 0  0.3999999999999999 -1 0  0.5 -1 0  0.6000000000000001 -1 0  0.7000000000000002 -1 0  0.7999999999999998 -1 0  0.8999999999999999 -1 0  1 -1 0  1.1 -1 0  1.2 -1 0  1.3 -1 0  1.4 -1 0  1.5 -1 0  1.6 -1 0  1.7 -1 0  1.8 -1 0  1.9 -1 0  2 -1 0  -2 -0.8999999999999999 0  -1.9 -0.8999999999999999 0  -1.8 -0.8999999999999999 0  -1.7 -0.8999999999999999 0  -1.6 -0.8999999999999999 0  -1.5 -0.8999999999999999 0  -1.4 -0.8999999999999999 0  -1.3 -0.8999999999999999 0  -1.2 -0.8999999999999999 0  -1.1 -0.8999999999999999 0  -1 -0.8999999999999999 0  -0.8999999999999999 -0.8999999999999999 0  -0.8 -0.8999999999999999 0  -0.7 -0.8999999999999999 0  -0.6000000000000001 -0.8999999999999999 0  -0.5 -0.8999999999999999 0  -0.3999999999999999 -0.8999999999999999 0  -0.3 -0.8999999999999999 0  -0.2 -0.8999999999999999 0  -0.1000000000000001 -0.8999999999999999 0  0 -0.8999999999999999 0  0.1000000000000001 -0.8999999999999999 0  0.2000000000000002 -0.8999999999999999 0  0.2999999999999998 -0.8999999999999999 0  0.3999999999999999 -0.8999999999999999 0  0.5 -0.8999999999999999 0  0.6000000000000001 -0.8999999999999999 0  0.7000000000000002 -0.8999999999999999 0  0.7999999999999998 -0.8999999999999999 0  0.8999999999999999 -0.8999999999999999 0  1 -0.8999999999999999 0  1.1 -0.8999999999999999 0  1.2 -0.8999999999999999 0  1.3 -0.8999999999999999 0  1.4 -0.8999999999999999 0  1.5 -0.8999999999999999 0  1.6 -0.8999999999999999 0  1.7 -0.8999999999999999 0  1.8 -0.8999999999999999 0  1.9 -0.8999999999999999 0  2 -0.8999999999999999 0  -2 -0.8 0  -1.9 -0.8 0  -1.8 -0.8 0  -1.7 -0.8 0  -1.6 -0.8 0  -1.5 -0.8 0  -1.4 -0.8 0  -1.3 -0.8 0  -1.2 -0.8 0  -1.1 -0.8 0  -1 -0.8 0  -0.8999999999999999 -0.8 0  -0.8 -0.8 0  -0.7 -0.8 0  -0.6000000000000001 -0.8 0  -0.5 -0.8 0  -0.3999999999999999 -0.8 0  -0.3 -0.8 0  -0.2 -0.8 0  -0.1000000000000001 -0.8 0  0 -0.8 0  0.1000000000000001 -0.8 0  0.2000000000000002 -0.8 0  0.2999999999999998 -0.8 0  0.3999999999999999 -0.8 0  0.5 -0.8 0  0.6000000000000001 -0.8 0  0.7000000000000002 -0.8 0  0.7999999999999998 -0.8 0  0.8999999999999999 -0.8 0  1 -0.8 0  1.1 -0.8 0  1.2 -0.8 0  1.3 -0.8 0  1.4 -0.8 0  1.5 -0.8 0  1.6 -0.8 0  1.7 -0.8 0  1.8 -0.8 0  1.9 -0.8 0  2 -0.8 0  -2 -0.7 0  -1.9 -0.7 0  -1.8 -0.7 0  -1.7 -0.7 0  -1.6 -0.7 0  -1.5 -0.7 0  -1.4 -0.7 0  -1.3 -0.7 0  -1.2 -0.7 0  -1.1 -0.7 0  -1 -0.7 0  -0.8999999999999999 -0.7 0  -0.8 -0.7 0  -0.7 -0.7 0  -0.6000000000000001 -0.7 0  -0.5 -0.7 0  -0.3999999999999999 -0.7 0  -0.3 -0.7 0  -0.2 -0.7 0  -0.1000000000000001 -0.7 0  0 -0.7 0  0.1000000000000001 -0.7 0  0.2000000000000002 -0.7 0  0.2999999999999998 -0.7 0  0.3999999999999999 -0.7 0  0.5 -0.7 0  0.600000000000000
[...]
<PointData  Scalars="f_1726"> 
<DataArray  type="Float64"  Name="f_1726"  format="ascii">0.0000000000000000e+00  0.0000000000000000e+00  0.0000000000000000e+00  0.0000000000000000e+00  0.0000000000000000e+00  0.0000000000000000e+00  0.0000000000000000e+00  0.0000000000000000e+00  0.0000000000000000e+00  0.0000000000000000e+00  0.0000000000000000e+00  0.0000000000000000e+00  0.0000000000000000e+00  0.0000000000000000e+00  0.0000000000000000e+00  0.0000000000000000e+00  0.0000000000000000e+00  0.0000000000000000e+00  0.0000000000000000e+00  0.0000000000000000e+00  0.0000000000000000e+00  0.0000000000000000e+00  0.0000000000000000e+00  0.0000000000000000e+00  0.0000000000000000e+00  0.0000000000000000e+00  0.0000000000000000e+00  0.0000000000000000e+00  0.0000000000000000e+00  0.0000000000000000e+00  0.0000000000000000e+00  0.0000000000000000e+00  0.0000000000000000e+00  0.0000000000000000e+00  0.0000000000000000e+00  0.0000000000000000e+00  0.0000000000000000e+00  0.0000000000000000e+00  0.0000000000000000e+00  0.0000000000000000e+00  0.0000000000000000e+00  0.0000000000000000e+00  -1.4326598260060418e-11  -1.6695633415130149e-11  1.0971175613602621e-10  -2.6437422547297324e-11  -5.5565172407386002e-10  2.9936891925143574e-10  2.7339651730115028e-09  3.7614612862144728e-10  -1.1348193010402159e-08  -2.2643804321885998e-08  -1.9959468112199934e-08  -6.8794584956598806e-09  1.8618301233269402e-09  1.8862284890481961e-09  -1.7903778477116332e-10  -3.6153197761906728e-10  6.0570500016190117e-11  5.5644724559527476e-11  -2.1638063607544966e-11  -3.9532062637414799e-12  4.7110383848591107e-12  -9.2416213445335587e-13  -4.0290668630154298e-13  3.0096554111805259e-13  -6.6072844738399046e-14  -1.5011189472666094e-14  1.6580925430979563e-14  -5.9478047838558575e-15  6.9809182900476819e-16  4.4690464776250675e-16  -3.3308745816399050e-16  1.2482571671112830e-16  -2.7604716465744049e-17  2.2855278614020414e-19  3.2366280582089750e-18  -1.9469553688471828e-18  7.9215636315664540e-19  -2.6259218394265275e-19  8.3240006021036954e-20  0.0000000000000000e+00  0.0000000000000000e+00  -1.6695633415130152e-11  1.2006831017692245e-10  -1.0681258751070499e-10  -5.2598867338354324e-10  1.1045678080711951e-09  2.0644142256999520e-09  -5.9475836302172587e-09  -1.1617960333956357e-08  1.7323208219043341e-08  7.4247057698655828e-08  9.6928867771170388e-08  5.6768508041648126e-08  4.5915420422466511e-09  -1.1004763029326802e-08  -2.5014067829270763e-09  2.0431202061525263e-09  3.4566236927306891e-10  -4.0927332282620657e-10  1.8684945520725649e-11  6.4159779376158971e-11  -2.1622149194770983e-11  -3.1270228501609591e-12  4.5101966799098271e-12  -1.3046011638118404e-12  -1.2153583763625567e-13  2.4487985121014542e-13  -9.7657814372927391e-14  1.3583040732970862e-14  6.4643690240313608e-15  -5.2068868148090494e-15  1.9615695263426769e-15  -4.1880565012819758e-16  -7.8204962569111133e-18  5.5224104727207105e-17  -3.1329078881259880e-17  1.2247893303808888e-17  -3.8730105360744948e-18  1.0520844036797314e-18  -2.6259218394265314e-19  0.0000000000000000e+00  0.0000000000000000e+00  1.0971175613602619e-10  -1.0681258751070491e-10  -4.8088551142658385e-10  1.4241699639229066e-09  7.8571579589323878e-10  -8.4489524982601197e-09  5.2425808191025920e-10  4.2206306065412714e-08  1.6028617591426939e-08  -1.7168441671651895e-07  -3.6536993940862541e-07  -3.2387643991057059e-07  -1.0510537716765705e-07  3.4534629168158932e-08  2.8131656487122116e-08  -4.9988655803358869e-09  -5.0342001644215986e-09  1.4856675753146040e-09  5.9569240945230337e-10  -3.9206916946923816e-10  1.5971005850266686e-11  5.7017402597449796e-11  -2.3385507851565300e-11  6.9519584868967274e-13  3.1637882437111453e-12  -1.5340204785640888e-12  2.8258671577686992e-13  7.1775396278544280e-14  -7.5104256478179896e-14  3.0434976765866875e-14  -6.9605298874567191e-15  8.0020367261532389e-17  8.0234077631188357e-16  -4.7578415863062656e-16  1.8889722108841435e-16  -6.0312261795139937e-17  1.6343732306362499e-17  -3.8730105360744794e-18  7.9215636315664348e-19  0.0000000000000000e+00  0.0000000000000000e+00  -2.6437422547297269e-11  -5.2598867338354335e-10  1.4241699639229068e-09  2.6727770951410404e-10  -8.6538433326767797e-09  9.8542443196914301e-09  3.7771248030781794e-08  -6.8886461115676329e-08  -1.9032201008710242e-07  2.0692542581801375e-07  1.0995091952375667e-06  1.4819660812919382e-06  8.4898344990693770e-07  3.9170214453845039e-08  -1.6859945137304330e-07  -2.3842832940757950e-08  3.1835652854130477e-08  9.5811109827690239e-10  -5.6649680500654138e-09  1.1797399347164463e-09  5.8088213611769457e-10  -3.7938430862939172e-10  5.0903703774803606e-11  3.6513626967913436e-11  -2.3302482284250634e-11  5.4771745815080656e-12  6.1636465600844869e-13  -1.0590784583340663e-12  4.7126495870156824e-13  -1.1648650083341972e-13  4.9190019623125758e-15  1.1531628162914060e-14  -7.2572885735750540e-15  2.9395267744644846e-15  -9.4678966321788000e-16  2.5751360986085436e-16  -6.0312261795140258e-17  1.2247893303808914e-17  -1.9469553688471925e-18  0.0000000000000000e+00  0.0000000000000000e+00  -5.5565172407386054e-10  1.1045678080711954e-09  7.8571579589323774e-10  -8.6538433326767831e-09  1.2870712264582766e-08  2.8472739645067833e-08  -1.0876064712197009e-07  -6.0460537789160602e-08  5.8674172791269493e-07  4.0397936476738725e-07  -2.3896498928029615e-06  -5.5231673827887973e-06  -4.9226678358698044e-06  -1.4704644637469550e-06  5.9826312567368047e-07  3.7482351447119205e-07  -1.0828254375046869e-07  -5.7719908102292285e-08  2.8332209294192210e-08  3.0501567365469768e-09  -5.4624824134530714e-09  1.3438416044992282e-09  3.3419546138210795e-10  -3.3744916341224063e-10  9.9800274498743235e-11  1.3097773678045210e-12  -1.4461046765708797e-11  7.2294217927475788e-12  -1.9381885503964382e-12  1.3727508952870027e-13  1.6342443542901378e-13  -1.1050303066013970e-13  4.5765423527439230e-14  -1.4873165960877938e-14  4.0541928695779255e-15  -9.4678966321787862e-16  1.8889722108841491e-16  -3.1329078881259843e-17  3.2366280582089742e-18  0.0000000000000000e+00  0.0000000000000000e+00  2.9936891925143724e-10  2.0644142256999536e-09  -8.4489524982601230e-09  9.8542443196914400e-09  2.8472739645067846e-08  -1.1748469561479927e-07  3.1815451272781831e-08  6.1928998194207811e-07  -6.6528582032973185e-07  -3.0252465803745646e-06  2.2005607375741066e-06  1.6182276460789559e-05  2.2660908118423368e-05  1.2623989144090563e-05  6.1667059326585657e-08  -2.5340444024942155e-06  -1.1945100328424436e-07  4.6392839243300392e-07  -5.1977899270855840e-08  -6.5407991852666675e-08  2.7115778108492653e-08  1.1227136075294864e-09  -4.5517838320772309e-09  1.7237611415698645e-09  -1.1415721297796166e-10  -1.8790019803277356e-10  1.0945792663997101e-10  -3.2030654118205862e-11  3.1438728282421227e-12  2.2684127576169012e-12  -1.6772357841787901e-12  7.1250733765533440e-13  -2.3387241435371859e-13  6.3894702411019369e-14  -1.4873165960877938e-14  2.9395267744644822e-15  -4.7578415863062814e-16  5.5224104727207117e-17  2.2855278614017737e-19  0.0000000000000000e+00  0.0000000000000000e+00  2.7339651730115045e-09  -5.9475836302172686e-09  5.2425808191027057e-10  3.7771248030781780e-08  -1.0876064712197013e-07  3.1815451272781745e-08  5.8917653451736191e-07  -1.1759378399454827e-06  -1.8675213579757104e-06  7.7081438998477547e-06  8.5697911075759330e-06  -3.2628467041053272e-05  -8.3754421446419929e-05  -7.5086891334875150e-05  -2.0116408523718518e-05  1.0238416697423277e-05  4.6712960376922381e-06  -2.0618939337357549e-06  -5.0864775587816639e-07  4.5516594326345771e-07  -4.8388658628383774e-08  -5.4406392052157361e-08  2.8175074621478009e-08  -3.9019970391872198e-09  -2.2453880175646770e-09  1.6275263023803424e-09  -5.2526375214601904e-10  6.5673693126398649e-11  3.0548883013390382e-11  -2.5352923010922205e-11  1.1092043024791247e-11  -3.6818880191822173e-12  1.0084249290439591e-12  -2.3387241435371899e-13  4.5765423527439325e-14  -7.2572885735750666e-15  8.0234077631188830e-16  -7.8204962569115740e-18  -2.7604716465743969e-17  0.0000000000000000e+00  0.0000000000000000e+00  3.7614612862144847e-10  -1.1617960333956359e-08  4.2206306065412767e-08  -6.8886461115676421e-08  -6.0460537789160668e-08  6.1928998194207853e-07  -1.1759378399454825e-06  -1.2686782616064117e-06  9.0348252392225690e-06  -3.6447523855619909e-06  -4.6539857506892231e-05  1.7759956315217767e-05  2.3749078318962305e-04  3.4853153984714557e-04  1.8730470880054702e-04  -8.3539331646825224e-06  -3.7177679895950073e-05  2.1927025432981389e-06  6.1235410367281977e-06  -1.6818942190341219e-06  -4.9842920686996491e-07  4.2998384388204199e-07  -9.2714843027475624e-08  -2.2646404818604344e-08  2.3575174072830523e-08  -8.5329362134283629e-09  1.3004397781469485e-09  3.9250959188155533e-10  -3.8117207514533039e-10  1.7264769931182025e-10  -5.8044310965788470e-11  1.5941950977330208e-11  -3.6818880191822027e-12  7.1250733765533228e-13  -1.1050303066013930e-13  1.1531628162913989e-14  8.0020367261541498e-17  -4.1880565012819723e-16  1.2482571671112801e-16  0.0000000000000000e+00  0.0000000000000000e+00  -1.1348193010402161e-08  1.7323208219043335e-08  1.6028617591426926e-08  -1.9032201008710263e-07  5.8674172791269578e-07  -6.6528582032973195e-07  -1.8675213579757123e-06  9.0348252392225741e-06  -8.0711071280836523e-06  -3.9710695264865704e-05  9.1595762081322126e-05  1.6626344963733606e-04  -4.3210905478735181e-04  -1.2757303054101762e-03  -1.1510175488058771e-03  -2.6519026639675557e-04  1.7292255566246870e-04  5.0999341819378091e-05  -3.5437445358304664e-05  -1.0419509648196021e-06  5.9146633723139765e-06  -1.8807126055967745e-06  -1.3263730980973396e-07  3.2803228362138266e-07  -1.3691997623034294e-07  2.4856295835006336e-08  4.6483047350330867e-09  -5.6893536751397203e-09  2.6863849604722442e-09  -9.1652899387561309e-10  2.5251255110599314e-10  -5.8044310965788735e-11  1.1092043024791271e-11  -1.6772357841787978e-12  1.6342443542901529e-13  4.9190019623122548e-15  -6.9605298874566860e-15  1.9615695263426662e-15  -3.3308745816398942e-16  0.0000000000000000e+00  0.0000000000000000e+00  -2.2643804321885988e-08  7.4247057698655788e-08  -1.7168441671651885e-07  2.0692542581801385e-07  4.0397936476738773e-07  -3.0252465803745697e-06  7.7081438998477614e-06  -3.6447523855619896e-06  -3.9710695264865717e-05  1.1017504173522588e-04  4.9641333807940126e-05  -6.8268591530544162e-04  4.2836198717618254e-06  3.4684091381134833e-03  5.4031790337842620e-03  2.7676195831902732e-03  -2.9207581562812026e-04  -5.2279101999122091e-04  9.6681518890802645e-05  6.6504885790899654e-05  -3.3988004430330852e-05  1.7709786718612905e-06  4.2648914322220665e-06  -2.1591548870490914e-06  4.6297508783515453e-07  4.6340983224859907e-08  -8.4065988833707256e-08  4.1775959923848817e-08  -1.4499659721190460e-08  4.0089274814189043e-09  -9.1652899387561206e-10  1.7264769931182064e-10  -2.5352923010922189e-11  2.2684127576169020e-12  1.3727508952870073e-13  -1.1648650083341965e-13  3.0434976765866963e-14  -5.2068868148090447e-15  4.4690464776250725e-16  0.0000000000000000e+00  0.0000000000000000e+00  -1.9959468112199917e-08  9.6928867771170322e-08  -3.6536993940862530e-07  1.0995091952375661e-06  -2.3896498928029619e-06  2.2005607375741062e-06  8.5697911075759482e-06  -4.6539857506892285e-05  9.1595762081322126e-05  4.9641333807940153e-05  -6.8546558706506313e-04  8.6729500995761006e-04  3.0315831287115679e-03  -5.4161205810828086e-03  -1.9548698284615300e-02  -1.7761948882595607e-02  -3.2582594474074703e-03  2.8679873367304216e-03  3.8467387632569683e-04  -5.3885202529514893e-04  9.1311992263510541e-05  4.8511093582816569e-05  -3.3153102783842749e-05  8.4432758599727757e-06  2.5246579480833564e-07  -1.2240897784836777e-06  6.4902781103200772e-07  -2.2991171132099524e-07  6.3824532675513488e-08  -1.4499659721190468e-08  2.6863849604722434e-09  -3.8117207514533189e-10  3.0548883013390518e-11  3.1438728282420900e-12  -1.9381885503964314e-12  4.7126495870156622e-13  -7.5104256478179783e-14  6.4643690240313032e-15  6.9809182900477489e-16  0.0000000000000000e+00  0.0000000000000000e+00  -6.8794584956598698e-09  5.6768508041648053e-08  -3.2387643991057022e-07  1.4819660812919372e-06  -5.5231673827887947e-06  1.6182276460789566e-05  -3.2628467041053286e-05  1.7759956315217750e-05  1.6626344963733636e-04  -6.8268591530544194e-04  8.6729500995760985e-04  2.3060178441978007e-03  -9.2078527811712101e-03  -4.5307799419574786e-03  5.0194475717310318e-02  8.4722626634938653e-02  4.0557158296178085e-02  -7.4370590717007749e-03  -6.7515740922715261e-03  2.3645714409650390e-03  3.8124254643072110e-04  -4.8654048042300031e-04  1.5091240560682025e-04  -4.6417061221200025e-06  -1.7427286636998111e-05  1.0066835926465709e-05  -3.6557760435800205e-06  1.0196370298111009e-06  -2.2991171132099567e-07  4.1775959923848909e-08  -5.6893536751397360e-09  3.9250959188155941e-10  6.5673693126398171e-11  -3.2030654118205817e-11  7.2294217927475731e-12  -1.0590784583340647e-12  7.1775396278544419e-14  1.3583040732970837e-14  -5.9478047838558528e-15  0.0000000000000000e+00  0.0000000000000000e+00  1.8618301233269455e-09  4.5915420422466081e-09  -1.0510537716765681e-07  8.4898344990693643e-07  -4.9226678358698010e-06  2.2660908118423358e-05  -8.3754421446419943e-05  2.3749078318962308e-04  -4.3210905478735203e-04  4.2836198717613383e-06  3.0315831287115714e-03  -9.2078527811712101e-03  2.7533184567289089e-03  5.2031428707759793e-02  -6.0277083014863307e-02  -3.0212915424055331e-01  -2.7668849168483806e-01  -3.3866511828076484e-02  4.6050213045032498e-02  -1.6698812039325020e-03  -6.5341582632153245e-03  2.6335184922366200e-03  -2.3144325379602005e-04  -2.3898982906532279e-04  1.5570993545967922e-04  -5.8334186768612668e-05  1.6360597386065799e-05  -3.6557760435800061e-06  6.4902781103200592e-07  -8.4065988833706964e-08  4.6483047350330503e-09  1.3004397781469545e-09  -5.2526375214601769e-10  1.0945792663997067e-10  -1.4461046765708712e-11  6.1636465600843567e-13  2.8258671577687219e-13  -9.7657814372927391e-14  1.6580925430979553e-14  0.0000000000000000e+00  0.0000000000000000e+00  1.8862284890481952e-09  -1.1004763029326804e-08  3.4534629168158985e-08  3.9170214453844642e-08  -1.4704644637469525e-06  1.2623989144090555e-05  -7.5086891334875109e-05  3.4853153984714557e-04  -1.2757303054101764e-03  3.4684091381134859e-03  -5.4161205810828094e-03  -4.5307799419574968e-03  5.2031428707759807e-02  -1.0223406409696066e-01  -1.4986454057117773e-01  7.1270128466798244e-01  1.3521913617297561e+00  5.8356067413768631e-01  -1.6841488224174345e-01  -7.0008480878855056e-02  4.4255266076729062e-02  -6.6076644042071652e-03  -3.0543635093265714e-03  2.3966279609866437e-03  -9.3506000015937938e-04  2.6401386466028522e-04  -5.8334186768612980e-05  1.0066835926465736e-05  -1.2240897784836859e-06  4.6340983224861389e-08  2.4856295835006035e-08  -8.5329362134283398e-09  1.6275263023803339e-09  -1.8790019803277265e-10  1.3097773678044283e-12  5.4771745815080608e-12  -1.5340204785640911e-12  2.4487985121014466e-13  -1.5011189472666002e-14  0.0000000000000000e+00  0.0000000000000000e+00  -1.7903778477116448e-10  -2.5014067829270709e-09  2.8131656487122103e-08  -1.6859945137304330e-07  5.9826312567368174e-07  6.1667059326577399e-08  -2.0116408523718477e-05  1.8730470880054683e-04  -1.1510175488058765e-03  5.4031790337842611e-03  -1.9548698284615310e-02  5.0194475717310338e-02  -6.0277083014863286e-02  -1.4986454057117790e-01  8.1271539083170008e-01  -4.5687880294837507e-01  -4.7314740772037460e+00  -4.3727383877651134e+00  -1.6855926653577571e-01  6.8525374557250029e-01  -1.6023983082388674e-01  -3.3083916846589845e-02  3.6545075330305370e-02  -1.5080331579448150e-02  4.2935627030172086e-03  -9.3506000015937830e-04  1.5570993545967963e-04  -1.7427286636998090e-05  2.5246579480833283e-07  4.6297508783515511e-07  -1.3691997623034286e-07  2.3575174072830583e-08  -2.2453880175646762e-09  -1.1415721297796136e-10  9.9800274498743197e-11  -2.3302482284250592e-11  3.1637882437111490e-12  -1.2153583763625498e-13  -6.6072844738399046e-14  0.0000000000000000e+00  0.0000000000000000e+00  -3.6153197761906734e-10  2.0431202061525296e-09  -4.9988655803359076e-09  -2.3842832940757841e-08  3.7482351447119162e-07  -2.5340444024942151e-06  1.0238416697423280e-05  -8.3539331646825986e-06  -2.6519026639675519e-04  2.7676195831902698e-03  -1.7761948882595593e-02  8.4722626634938625e-02  -3.0212915424055325e-01  7.1270128466798222e-01  -4.5687880294837357e-01  -3.6945020413651122e+00  9.6395054743923314e+00  2.2266702811772582e+01  7.9972443334871262e+00  -3.5690824277199260e+00  -1.7648473488226918e-01  5.4633409639828290e-01  -2.4533242118107881e-01  7.0606305505688138e-02  -1.5080331579448148e-02  2.3966279609866420e-03  -2.3898982906532382e-04  -4.6417061221198526e-06  8.4432758599727435e-06  -2.1591548870490830e-06  3.2803228362138070e-07  -2.2646404818604106e-08  -3.9019970391872587e-09  1.7237611415698703e-09  -3.3744916341224120e-10  3.6513626967913456e-11  6.9519584868967496e-13  -1.3046011638118392e-12  3.0096554111805253e-13  0.0000000000000000e+00  0.0000000000000000e+00  6.0570500016190246e-11  3.4566236927306818e-10  -5.0342001644215994e-09  3.1835652854130491e-08  -1.0828254375046885e-07  -1.1945100328424357e-07  4.6712960376922364e-06  -3.7177679895950080e-05  1.7292255566246886e-04  -2.9207581562812091e-04  -3.2582594474074660e-03  4.0557158296178078e-02  -2.7668849168483806e-01  1.3521913617297565e+00  -4.7314740772037460e+00  9.6395054743923279e+00  3.9833413597215630e+00  -7.5826240711670195e+01  -7.0855384718035594e+01  6.1861369593270013e+00  7.7599579297825176e+00  -4.0448278427008866e+00  1.1814122090088934e+00  -2.4533242118107926e-01  3.6545075330305460e-02  -3.0543635093265883e-03  -2.3144325379601758e-04  1.5091240560681960e-04  -3.3153102783842695e-05  4.2648914322220597e-06  -1.3263730980973386e-07  -9.2714843027475796e-08  2.8175074621477959e-08  -4.5517838320772235e-09  3.3419546138210655e-10  5.0903703774803838e-11  -2.3385507851565393e-11  4.5101966799098271e-12  -4.0290668630154323e-13  0.0000000000000000e+00  0.0000000000000000e+00  5.5644724559527489e-11  -4.0927332282620683e-10  1.4856675753146063e-09  9.5811109827690012e-10  -5.7719908102292312e-08  4.6392839243300434e-07  -2.0618939337357578e-06  2.1927025432981550e-06  5.0999341819378030e-05  -5.2279101999122102e-04  2.8679873367304242e-03  -7.4370590717007965e-03  -3.3866511828076366e-02  5.8356067413768575e-01  -4.3727383877651134e+00  2.2266702811772589e+01  -7.5826240711670181e+01  1.0771871928018807e+02  3.9319711030939163e+02  8.9760628298785250e+01  -6.8259638034896270e+01  2.0384109141008775e+01  -4.0448278427008715e+00  5.4633409639828134e-01  -3.3083916846589616e-02  -6.6076644042071704e-03  2.6335184922366235e-03  -4.8654048042299884e-04  4.8511093582816338e-05  1.7709786718613322e-06  -1.8807126055967783e-06  4.2998384388204358e-07  -5.4406392052157407e-08  1.1227136075295005e-09  1.3438416044992249e-09  -3.7938430862939042e-10  5.7017402597449719e-11  -3.1270228501609219e-12  -9.2416213445335930e-13  0.0000000000000000e+00  0.0000000000000000e+00  -2.1638063607544985e-11  1.8684945520725739e-11  5.9569240945230358e-10  -5.6649680500654179e-09  2.8332209294192233e-08  -5.1977899270855926e-08  -5.0864775587816639e-07  6.1235410367282020e-06  -3.5437445358304698e-05  9.6681518890802875e-05  3.8467387632569623e-04  -6.7515740922715287e-03  4.6050213045032533e-02  -1.6841488224174372e-01  -1.6855926653577374e-01  7.9972443334871217e+00  -7.0855384718035580e+01  3.9319711030939163e+02  -1.2789213903740535e+03  -1.2128115696940854e+03  3.7675766117592377e+02  -6.8259638034896554e+01  7.7599579297825487e+00  -1.7648473488227631e-01  -1.6023983082388552e-01  4.4255266076728798e-02  -6.5341582632153063e-03  3.8124254643071589e-04  9.1311992263511178e-05  -3.3988004430330920e-05  5.9146633723139782e-06  -4.9842920686996586e-07  -4.8388658628383787e-08  2.7115778108492680e-08  -5.462482413453072