<?xml version="1.0"?>
<VTKFile type="UnstructuredGrid"  version="0.1"  >
<UnstructuredGrid>
<Piece  NumberOfPoints="1681" NumberOfCells="3200">
<Points>
<DataArray  type="Float64"  NumberOfComponents="3"  format="ascii">-2 -2 0  -1.9 -2 0  -1.8 -2 0  -1.7 -2 0  -1.6 -2 0  -1.5 -2 0  -1.4 -2 0  -1.3 -2 0  -1.2 -2 0  -1.1 -2 0  -1 -2 0  -0.8999999999999999 -2 0  -0.8 -2 0  -0.7 -2 0  -0.6000000000000001 -2 0  -0.5 -2 0  -0.3999999999999999 -2 0  -0.3 -2 0  -0.2 -2 0  -0.1000000000000001 -2 0  0 -2 0  0.1000000000000001 -2 0  0.2000000000000002 -2 0  0.2999999999999998 -2 0  0.3999999999999999 -2 0  0.5 -2 0  0.6000000000000001 -2 0  0.7000000000000002 -2 0  0.7999999999999998 -2 0  0.8999999999999999 -2 0  1 -2 0  1.1 -2 0  1.2 -2 0  1.3 -2 0  1.4 -2 0  1.5 -2 0  1.6 -2 0  1.7 -2 0  1.8 -2 0  1.9 -2 0  2 -2 0  -2 -1.9 0  -1.9 -1.9 0  -1.8 -1.9 0  -1.7 -1.9 0  -1.6 -1.9 0  -1.5 -1.9 0  -1.4 -1.9 0  -1.3 -1.9 0  -1.2 -1.9 0  -1.1 -1.9 0  -1 -1.9 0  -0.8999999999999999 -1.9 0  -0.8 -1.9 0  -0.7 -1.9 0  -0.6000000000000001 -1.9 0  -0.5 -1.9 0  -0.3999999999999999 -1.9 0  -0.3 -1.9 0  -0.2 -1.9 0  -0.1000000000000001 -1.9 0  0 -1.9 0  0.1000000000000001 -1.9 0  0.2000000000000002 -1.9 0  0.2999999999999998 -1.9 0  0.3999999999999999 -1.9 0  0.5 -1.9 0  0.6000000000000001 -1.9 0  0.7000000000000002 -1.9 0  0.7999999999999998 -1.9 0  0.8999999999999999 -1.9 0  1 -1.9 0  1.1 -1.9 0  1.2 -1.9 0  1.3 -1.9 0  1.4 -1.9 0  1.5 -1.9 0  1.6 -1.9 0  1.7 -1.9 0  1.8 -1.9 0  1.9 -1.9 0  2 -1.9 0  -2 -1.8 0  -1.9 -1.8 0  -1.8 -1.8 0  -1.7 -1.8 0  -1.6 -1.8 0  -1.5 -1.8 0  -1.4 -1.8 0  -1.3 -1.8 0  -1.2 -1.8 0  -1.1 -1.8 0  -1 -1.8 0  -0.8999999999999999 -1.8 0  -0.8 -1.8 0  -0.7 -1.8 0  -0.6000000000000001 -1.8 0  -0.5 -1.8 0  -0.3999999999999999 -1.8 0  -0.3 -1.8 0  -0.2 -1.8 0  -0.1000000000000001 -1.8 0  0 -1.8 0  0.1000000000000001 -1.8 0  0.2000000000000002 -1.8 0  0.2999999999999998 -1.8 0  0.3999999999999999 -1.8 0  0.5 -1.8 0  0.6000000000000001 -1.8 0  0.7000000000000002 -1.8 0  0.7999999999999998 -1.8 0  0.8999999999999999 -1.8 0  1 -1.8 0  1.1 -1.8 0  1.2 -1.8 0  1.3 -1.8 0  1.4 -1.8 0  1.5 -1.8 0  1.6 -1.8 0  1.7 -1.8 0  1.8 -1.8 0  1.9 -1.8 0  2 -1.8 0  -2 -1.7 0  -1.9 -1.7 0  -1.8 -1.7 0  -1.7 -1.7 0  -1.6 -1.7 0  -1.5 -1.7 0  -1.4 -1.7 0  -1.3 -1.7 0  -1.2 -1.7 0  -1.1 -1.7 0  -1 -1.7 0  -0.8999999999999999 -1.7 0  -0.8 -1.7 0  -0.7 -1.7 0  -0.6000000000000001 -1.7 0  -0.5 -1.7 0  -0.3999999999999999 -1.7 0  -0.3 -1.7 0  -0.2 -1.7 0  -0.1000000000000001 -1.7 0  0 -1.7 0  0.1000000000000001 -1.7 0  0.2000000000000002 -1.7 0  0.2999999999999998 -1.7 0  0.3999999999999999 -1.7 0  0.5 -1.7 0  0.6000000000000001 -1.7 0  0.7000000000000002 -1.7 0  0.7999999999999998 -1.7 0  0.8999999999999999 -1.7 0  1 -1.7 0  1.1 -1.7 0  1.2 -1.7 0  1.3 -1.7 0  1.4 -1.7 0  1.5 -1.7 0  1.6 -1.7 0  1.7 -1.7 0  1.8 -1.7 0  1.9 -1.7 0  2 -1.7 0  -2 -1.6 0  -1.9 -1.6 0  -1.8 -1.6 0  -1.7 -1.6 0  -1.6 -1.6 0  -1.5 -1.6 0  -1.4 -1.6 0  -1.3 -1.6 0  -1.2 -1.6 0  -1.1 -1.6 0  -1 -1.6 0  -0.8999999999999999 -1.6 0  -0.8 -1.6 0  -0.7 -1.6 0  -0.6000000000000001 -1.6 0  -0.5 -1.6 0  -0.3999999999999999 -1.6 0  -0.3 -1.6 0  -0.2 -1.6 0  -0.1000000000000001 -1.6 0  0 -1.6 0  0.1000000000000001 -1.6 0  0.2000000000000002 -1.6 0  0.2999999999999998 -1.6 0  0.3999999999999999 -1.6 0  0.5 -1.6 0  0.6000000000000001 -1.6 0  0.7000000000000002 -1.6 0  0.7999999999999998 -1.6 0  0.8999999999999999 -1.6 0  1 -1.6 0  1.1 -1.6 0  1.2 -1.6 0  1.3 -1.6 0  1.4 -1.6 0  1.5 -1.6 0  1.6 -1.6 0  1.7 -1.6 0  1.8 -1.6 0  1.9 -1.6 0  2 -1.6 0  -2 -1.5 0  -1.9 -1.5 0  -1.8 -1.5 0  -1.7 -1.5 0  -1.6 -1.5 0  -1.5 -1.5 0  -1.4 -1.5 0  -1.3 -1.5 0  -1.2 -1.5 0  -1.1 -1.5 0  -1 -1.5 0  -0.8999999999999999 -1.5 0  -0.8 -1.5 0  -0.7 -1.5 0  -0.6000000000000001 -1.5 0  -0.5 -1.5 0  -0.3999999999999999 -1.5 0  -0.3 -1.5 0  -0.2 -1.5 0  -0.1000000000000001 -1.5 0  0 -1.5 0  0.1000000000000001 -1.5 0  0.2000000000000002 -1.5 0  0.2999999999999998 -1.5 0  0.3999999999999999 -1.5 0  0.5 -1.5 0  0.6000000000000001 -1.5 0  0.7000000000000002 -1.5 0  0.7999999999999998 -1.5 0  0.8999999999999999 -1.5 0  1 -1.5 0  1.1 -1.5 0  1.2 -1.5 0  1.3 -1.5 0  1.4 -1.5 0  1.5 -1.5 0  1.6 -1.5 0  1.7 -1.5 0  1.8 -1.5 0  1.9 -1.5 0  2 -1.5 0  -2 -1.4 0  -1.9 -1.4 0  -1.8 -1.4 0  -1.7 -1.4 0  -1.6 -1.4 0  -1.5 -1.4 0  -1.4 -1.4 0  -1.3 -1.4 0  -1.2 -1.4 0  -1.1 -1.4 0  -1 -1.4 0  -0.8999999999999999 -1.4 0  -0.8 -1.4 0  -0.7 -1.4 0  -0.6000000000000001 -1.4 0  -0.5 -1.4 0  -0.3999999999999999 -1.4 0  -0.3 -1.4 0  -0.2 -1.4 0  -0.1000000000000001 -1.4 0  0 -1.4 0  0.1000000000000001 -1.4 0  0.2000000000000002 -1.4 0  0.2999999999999998 -1.4 0  0.3999999999999999 -1.4 0  0.5 -1.4 0  0.6000000000000001 -1.4 0  0.7000000000000002 -1.4 0  0.7999999999999998 -1.4 0  0.8999999999999999 -1.4 0  1 -1.4 0  1.1 -1.4 0  1.2 -1.4 0  1.3 -1.4 0  1.4 -1.4 0  1.5 -1.4 0  1.6 -1.4 0  1.7 -1.4 0  1.8 -1.4 0  1.9 -1.4 0  2 -1.4 0  -2 -1.3 0  -1.9 -1.3 0  -1.8 -1.3 0  -1.7 -1.3 0  -1.6 -1.3 0  -1.5 -1.3 0  -1.4 -1.3 0  -1.3 -1.3 0  -1.2 -1.3 0  -1.1 -1.3 0  -1 -1.3 0  -0.8999999999999999 -1.3 0  -0.8 -1.3 0  -0.7 -1.3 0  -0.6000000000000001 -1.3 0  -0.5 -1.3 0  -0.3999999999999999 -1.3 0  -0.3 -1.3 0  -0.2 -1.3 0  -0.1000000000000001 -1.3 0  0 -1.3 0  0.1000000000000001 -1.3 0  0.2000000000000002 -1.3 0  0.2999999999999998 -1.3 0  0.3999999999999999 -1.3 0  0.5 -1.3 0  0.6000000000000001 -1.3 0  0.7000000000000002 -1.3 0  0.7999999999999998 -1.3 0  0.8999999999999999 -1.3 0  1 -1.3 0  1.1 -1.3 0  1.2 -1.3 0  1.3 -1.3 0  1.4 -1.3 0  1.5 -1.3 0  1.6 -1.3 0  1.7 -1.3 0  1.8 -1.3 0  1.9 -1.3 0  2 -1.3 0  -2 -1.2 0  -1.9 -1.2 0  -1.8 -1.2 0  -1.7 -1.2 0  -1.6 -1.2 0  -1.5 -1.2 0  -1.4 -1.2 0  -1.3 -1.2 0  -1.2 -1.2 0  -1.1 -1.2 0  -1 -1.2 0  -0.8999999999999999 -1.2 0  -0.8 -1.2 0  -0.7 -1.2 0  -0.6000000000000001 -1.2 0  -0.5 -1.2 0  -0.3999999999999999 -1.2 0  -0.3 -1.2 0  -0.2 -1.2 0  -0.1000000000000001 -1.2 0  0 -1.2 0  0.1000000000000001 -1.2 0  0.2000000000000002 -1.2 0  0.2999999999999998 -1.2 0  0.3999999999999999 -1.2 0  0.5 -1.2 0  0.6000000000000001 -1.2 0  0.7000000000000002 -1.2 0  0.7999999999999998 -1.2 0  0.8999999999999999 -1.2 0  1 -1.2 0  1.1 -1.2 0  1.2 -1.2 0  1.3 -1.2 0  1.4 -1.2 0  1.5 -1.2 0  1.6 -1.2 0  1.7 -1.2 0  1.8 -1.2 0  1.9 -1.2 0  2 -1.2 0  -2 -1.1 0  -1.9 -1.1 0  -1.8 -1.1 0  -1.7 -1.1 0  -1.6 -1.1 0  -1.5 -1.1 0  -1.4 -1.1 0  -1.3 -1.1 0  -1.2 -1.1 0  -1.1 -1.1 0  -1 -1.1 0  -0.8999999999999999 -1.1 0  -0.8 -1.1 0  -0.7 -1.1 0  -0.6000000000000001 -1.1 0  -0.5 -1.1 0  -0.3999999999999999 -1.1 0  -0.3 -1.1 0  -0.2 -1.1 0  -0.1000000000000001 -1.1 0  0 -1.1 0  0.1000000000000001 -1.1 0  0.2000000000000002 -1.1 0  0.2999999999999998 -1.1 0  0.3999999999999999 -1.1 0  0.5 -1.1 0  0.6000000000000001 -1.1 0  0.7000000000000002 -1.1 0  0.7999999999999998 -1.1 0  0.8999999999999999 -1.1 0  1 -1.1 0  1.1 -1.1 0  1.2 -1.1 0  1.3 -1.1 0  1.4 -1.1 0  1.5 -1.1 0  1.6 -1.1 0  1.7 -1.1 0  1.8 -1.1 0  1.9 -1.1 0  2 -1.1 0  -2 -1 0  -1.9 -1 0  -1.8 -1 0  -1.7 -1 0  -1.6 -1 0  -1.5 -1 0  -1.4 -1 0  -1.3 -1 0  -1.2 -1 0  -1.1 -1 0  -1 -1 0  -0.8999999999999999 -1 0  -0.8 -1 0  -0.7 -1 0  -0.6000000000000001 -1 0  -0.5 -1 0  -0.3999999999999999 -1 0  -0.3 -1 0  -0.2 -1 0  -0.1000000000000001 -1 0  0 -1 0  0.1000000000000001 -1 0  0.2000000000000002 -1 0  0.2999999999999998 -1 0  0.3999999999999999 -1 0  0.5 -1 0  0.6000000000000001 -1 0  0.7000000000000002 -1 0  0.7999999999999998 -1 0  0.8999999999999999 -1 0  1 -1 0  1.1 -1 0  1.2 -1 0  1.3 -1 0  1.4 -1 0  1.5 -1 0  1.6 -1 0  1.7 -1 0  1.8 -1 0  1.9 -1 0  2 -1 0  -2 -0.8999999999999999 0  -1.9 -0.8999999999999999 0  -1.8 -0.8999999999999999 0  -1.7 -0.8999999999999999 0  -1.6 -0.8999999999999999 0  -1.5 -0.8999999999999999 0  -1.4 -0.8999999999999999 0  -1.3 -0.8999999999999999 0  -1.2 -0.8999999999999999 0  -1.1 -0.8999999999999999 0  -1 -0.8999999999999999 0  -0.8999999999999999 -0.8999999999999999 0  -0.8 -0.8999999999999999 0  -0.7 -0.8999999999999999 0  -0.6000000000000001 -0.8999999999999999 0  -0.5 -0.8999999999999999 0  -0.3999999999999999 -0.8999999999999999 0  -0.3 -0.8999999999999999 0  -0.2 -0.8999999999999999 0  -0.1000000000000001 -0.8999999999999999 0  0 -0.8999999999999999 0  0.1000000000000001 -0.8999999999999999 0  0.2000000000000002 -0.8999999999999999 0  0.2999999999999998 -0.8999999999999999 0  0.3999999999999999 -0.8999999999999999 0  0.5 -0.8999999999999999 0  0.6000000000000001 -0.8999999999999999 0  0.7000000000000002 -0.8999999999999999 0  0.7999999999999998 -0.8999999999999999 0  0.8999999999999999 -0.8999999999999999 0  1 -0.8999999999999999 0  1.1 -0.8999999999999999 0  1.2 -0.8999999999999999 0  1.3 -0.8999999999999999 0  1.4 -0.8999999999999999 0  1.5 -0.8999999999999999 0  1.6 -0.8999999999999999 0  1.7 -0.8999999999999999 0  1.8 -0.8999999999999999 0  1.9 -0.8999999999999999 0  2 -0.8999999999999999 0  -2 -0.8 0  -1.9 -0.8 0  -1.8 -0.8 0  -1.7 -0.8 0  -1.6 -0.8 0  -1.5 -0.8 0  -1.4 -0.8 0  -1.3 -0.8 0  -1.2 -0.8 0  -1.1 -0.8 0  -1 -0.8 0  -0.8999999999999999 -0.8 0  -0.8 -0.8 0  -0.7 -0.8 0  -0.6000000000000001 -0.8 0  -0.5 -0.8 0  -0.3999999999999999 -0.8 0  -0.3 -0.8 0  -0.2 -0.8 0  -0.1000000000000001 -0.8 0  0 -0.8 0  0.1000000000000001 -0.8 0  0.2000000000000002 -0.8 0  0.2999999999999998 -0.8 0  0.3999999999999999 -0.8 0  0.5 -0.8 0  0.6000000000000001 -0.8 0  0.7000000000000002 -0.8 0  0.7999999999999998 -0.8 0  0.8999999999999999 -0.8 0  1 -0.8 0  1.1 -0.8 0  1.2 -0.8 0  1.3 -0.8 0  1.4 -0.8 0  1.5 -0.8 0  1.6 -0.8 0  1.7 -0.8 0  1.8 -0.8 0  1.9 -0.8 0  2 -0.8 0  -2 -0.7 0  -1.9 -0.7 0  -1.8 -0.7 0  -1.7 -0.7 0  -1.6 -0.7 0  -1.5 -0.7 0  -1.4 -0.7 0  -1.3 -0.7 0  -1.2 -0.7 0  -1.1 -0.7 0  -1 -0.7 0  -0.8999999999999999 -0.7 0  -0.8 -0.7 0  -0.7 -0.7 0  -0.6000000000000001 -0.7 0  -0.5 -0.7 0  -0.3999999999999999 -0.7 0  -0.3 -0.7 0  -0.2 -0.7 0  -0.1000000000000001 -0.7 0  0 -0.7 0  0.1000000000000001 -0.7 0  0.2000000000000002 -0.7 0  0.2999999999999998 -0.7 0  0.3999999999999999 -0.7 0  0.5 -0.7 0  0.600000000000000
[...]
<PointData  Scalars="f_1726"> 
<DataArray  type="Float64"  Name="f_1726"  format="ascii">0.0000000000000000e+00  0.0000000000000000e+00  0.0000000000000000e+00  0.0000000000000000e+00  0.0000000000000000e+00  0.0000000000000000e+00  0.0000000000000000e+00  0.0000000000000000e+00  0.0000000000000000e+00  0.0000000000000000e+00  0.0000000000000000e+00  0.0000000000000000e+00  0.0000000000000000e+00  0.0000000000000000e+00  0.0000000000000000e+00  0.0000000000000000e+00  0.0000000000000000e+00  0.0000000000000000e+00  0.0000000000000000e+00  0.0000000000000000e+00  0.0000000000000000e+00  0.0000000000000000e+00  0.0000000000000000e+00  0.0000000000000000e+00  0.0000000000000000e+00  0.0000000000000000e+00  0.0000000000000000e+00  0.0000000000000000e+00  0.0000000000000000e+00  0.0000000000000000e+00  0.0000000000000000e+00  0.0000000000000000e+00  0.0000000000000000e+00  0.0000000000000000e+00  0.0000000000000000e+00  0.0000000000000000e+00  0.0000000000000000e+00  0.0000000000000000e+00  0.0000000000000000e+00  0.0000000000000000e+00  0.0000000000000000e+00  0.0000000000000000e+00  -2.1891329821801563e-11  -2.5511263109360327e-11  1.6764176640580157e-10  -4.0396912520026090e-11  -8.4904699196208607e-10  4.5744171999290975e-10  4.1775536828280715e-09  5.7475883760917691e-10  -1.7340266793460648e-08  -3.4600187695125015e-08  -3.0498468064815904e-08  -1.0511950722016695e-08  2.8449138142960445e-09  2.8821950070412839e-09  -2.7357333023825099e-10  -5.5242812142299914e-10  9.2552940290255761e-11  8.5026256482100997e-11  -3.3063395688174386e-11  -6.0405785520233820e-12  7.1985612504837010e-12  -1.4121382987710888e-12  -6.1564950710071843e-13  4.5988139026552747e-13  -1.0096063351377036e-13  -2.2937398941366218e-14  2.5335987006223206e-14  -9.0883651426216971e-15  1.0666983325170477e-15  6.8287927569931247e-16  -5.0896432452505298e-16  1.9073620165535059e-16  -4.2180561066864967e-17  3.4923324659944595e-19  4.9456326649625107e-18  -2.9749868987797871e-18  1.2104308295323008e-18  -4.0124612995824698e-19  1.2719240067303903e-19  0.0000000000000000e+00  0.0000000000000000e+00  -2.5511263109360337e-11  1.8346678894158493e-10  -1.6321177853053204e-10  -8.0372125486838698e-10  1.6878017906344910e-09  3.1544663906438170e-09  -9.0880272154211220e-09  -1.7752476680823337e-08  2.6470210011544072e-08  1.1345099505657183e-07  1.4810925630181898e-07  8.6743420208536811e-08  7.0159684394658057e-09  -1.6815498886247491e-08  -3.8221997929686681e-09  3.1219287011879647e-09  5.2817904120599066e-10  -6.2537785555350504e-10  2.8550971952421699e-11  9.8037431225603032e-11  -3.3039078145891758e-11  -4.7781537061746827e-12  6.8916710923870086e-12  -1.9934567749085986e-12  -1.8570920036763664e-13  3.7418132987644613e-13  -1.4922310134667032e-13  2.0755158989652337e-14  9.8776856743040454e-15  -7.9562276081645391e-15  2.9973176248875664e-15  -6.3994344308163422e-16  -1.1949875317400265e-17  8.4383540932200611e-17  -4.7871461623577781e-17  1.8715026907914747e-17  -5.9180378698049506e-18  1.6076060948490151e-18  -4.0124612995824742e-19  0.0000000000000000e+00  0.0000000000000000e+00  1.6764176640580147e-10  -1.6321177853053183e-10  -7.3480271771930558e-10  2.1761603024393124e-09  1.2005895134261744e-09  -1.2910169073685378e-08  8.0107687634665420e-10  6.4492083177458911e-08  2.4492049536955415e-08  -2.6233723619392442e-07  -5.5829260410434226e-07  -4.9488970367507842e-07  -1.6060312684529262e-07  5.2769606829932016e-08  4.2985736000572178e-08  -7.6383669847892320e-09  -7.6923589387964190e-09  2.2701298875278914e-09  9.1022996324383933e-10  -5.9908956376185194e-10  2.4404017639609489e-11  8.7123736087645050e-11  -3.5733525582002820e-11  1.0622732164438282e-12  4.8343319657744716e-12  -2.3440140946272840e-12  4.3179817609439034e-13  1.0967424677527706e-13  -1.1476081200437598e-13  4.6505255637540973e-14  -1.0635829436609038e-14  1.2227272799764690e-16  1.2259928173381815e-15  -7.2700774821108747e-16  2.8863874691009955e-16  -9.2158347103025599e-17  2.4973551148931727e-17  -5.9180378698049259e-18  1.2104308295322972e-18  0.0000000000000000e+00  0.0000000000000000e+00  -4.0396912520026135e-11  -8.0372125486838636e-10  2.1761603024393107e-09  4.0840570711754073e-10  -1.3223246382915396e-08  1.5057483195321353e-08  5.7715225443854264e-08  -1.0525989583612578e-07  -2.9081585311009046e-07  3.1618620574621768e-07  1.6800721286469347e-06  2.2644739303346519e-06  1.2972637591839154e-06  5.9852874229768784e-08  -2.5762334720248658e-07  -3.6432327501451611e-08  4.8645516826212013e-08  1.4640129971941983e-09  -8.6561849339821654e-09  1.8026663096169954e-09  8.8759956819585153e-10  -5.7970684168449267e-10  7.7781881522572420e-11  5.5793555206555386e-11  -3.5606660847979091e-11  8.3692327431030656e-12  9.4181757108371070e-13  -1.6182931508025968e-12  7.2010231997321479e-13  -1.7799371234139713e-13  7.5163337727751635e-15  1.7620559389906618e-14  -1.1089282667960666e-14  4.4916559375587051e-15  -1.4467136170877481e-15  3.9348596678266343e-16  -9.2158347103026055e-17  1.8715026907914778e-17  -2.9749868987797995e-18  0.0000000000000000e+00  0.0000000000000000e+00  -8.4904699196208649e-10  1.6878017906344912e-09  1.2005895134261713e-09  -1.3223246382915385e-08  1.9666706786283525e-08  4.3506917914918691e-08  -1.6618845273389982e-07  -9.2384915799295361e-08  8.9655314212017289e-07  6.1728858133608878e-07  -3.6514330207624421e-06  -8.4395106670029689e-06  -7.5219353011819266e-06  -2.2468992277715626e-06  9.1415806925050439e-07  5.7273785662927341e-07  -1.6545790118185192e-07  -8.8197178605469530e-08  4.3292184716908372e-08  4.6607007410884210e-09  -8.3467828152938950e-09  2.0534169562333750e-09  5.1065737569122196e-10  -5.1562909772813162e-10  1.5249682343986570e-10  2.0013661185484393e-12  -2.2096769838180214e-11  1.1046701667286777e-11  -2.9615910241479053e-12  2.0975909330603662e-13  2.4971581892484553e-13  -1.6885084976756853e-13  6.9930486127094427e-14  -2.2726496243819303e-14  6.1948881135689972e-15  -1.4467136170877456e-15  2.8863874691010014e-16  -4.7871461623577701e-17  4.9456326649625084e-18  0.0000000000000000e+00  0.0000000000000000e+00  4.5744171999291125e-10  3.1544663906438166e-09  -1.2910169073685373e-08  1.5057483195321356e-08  4.3506917914918665e-08  -1.7951897401125907e-07  4.8614648404260155e-08  9.4628752785131895e-07  -1.0165700925115881e-06  -4.6226375222569898e-06  3.3625009946316752e-06  2.4726843374836561e-05  3.4626322639681163e-05  1.9289708903930943e-05  9.4228504935628494e-08  -3.8720707310359824e-06  -1.8252353161395044e-07  7.0889189939540170e-07  -7.9423273810560973e-08  -9.9944724954016892e-08  4.1433453439022874e-08  1.7155289365773651e-09  -6.9552170959755974e-09  2.6339416377235634e-09  -1.7443451372577690e-10  -2.8711527566069473e-10  1.6725390983889157e-10  -4.8943482673376357e-11  4.8039008110330128e-12  3.4661802437367025e-12  -2.5628499573932394e-12  1.0887255192008778e-12  -3.5736174532869914e-13  9.7632388300081144e-14  -2.2726496243819303e-14  4.4916559375586972e-15  -7.2700774821108944e-16  8.4383540932200599e-17  3.4923324659940474e-19  0.0000000000000000e+00  0.0000000000000000e+00  4.1775536828280715e-09  -9.0880272154211303e-09  8.0107687634668046e-10  5.7715225443854251e-08  -1.6618845273389976e-07  4.8614648404260327e-08  9.0027357550341672e-07  -1.7968566324602799e-06  -2.8536101351202851e-06  1.1778198659753822e-05  1.3094812895178937e-05  -4.9856952823668163e-05  -1.2797843777256980e-04  -1.1473427771671138e-04  -3.0738276165005370e-05  1.5644506302739596e-05  7.1378341459799140e-06  -3.1506153339146512e-06  -7.7722398471171956e-07  6.9550270111292623e-07  -7.3938842036326325e-08  -8.3134059544920684e-08  4.3052079781711205e-08  -5.9623298286149062e-09  -3.4309979785963679e-09  2.4868928710307101e-09  -8.0261356066091288e-10  1.0035072183560417e-10  4.6679306671012927e-11  -3.8739775451517422e-11  1.6948864471913713e-11  -5.6259988262222488e-12  1.5408935409161854e-12  -3.5736174532869965e-13  6.9930486127094541e-14  -1.1089282667960681e-14  1.2259928173381882e-15  -1.1949875317401011e-17  -4.2180561066864819e-17  0.0000000000000000e+00  0.0000000000000000e+00  5.7475883760917029e-10  -1.7752476680823327e-08  6.4492083177458911e-08  -1.0525989583612588e-07  -9.2384915799295321e-08  9.4628752785131852e-07  -1.7968566324602804e-06  -1.9385658590009668e-06  1.3805394386296167e-05  -5.5692548323609578e-06  -7.1113836798459201e-05  2.7137569872471499e-05  3.6289068556739717e-04  5.3256319145659212e-04  2.8620535615633168e-04  -1.2764977623975060e-05  -5.6808241414886497e-05  3.3504935159841877e-06  9.3568936658232478e-06  -2.5699681393943168e-06  -7.6160983663705659e-07  6.5702394759746111e-07  -1.4167014187514950e-07  -3.4604161306329067e-08  3.6023339376624746e-08  -1.3038497876869140e-08  1.9870980940513407e-09  5.9976253805162740e-10  -5.8243858481949018e-10  2.6380915134241666e-10  -8.8692872694954108e-11  2.4359621210335794e-11  -5.6259988262222246e-12  1.0887255192008742e-12  -1.6885084976756785e-13  1.7620559389906508e-14  1.2227272799765984e-16  -6.3994344308163323e-16  1.9073620165535005e-16  0.0000000000000000e+00  0.0000000000000000e+00  -1.7340266793460675e-08  2.6470210011544125e-08  2.4492049536955302e-08  -2.9081585311009030e-07  8.9655314212017342e-07  -1.0165700925115887e-06  -2.8536101351202826e-06  1.3805394386296172e-05  -1.2332813760859097e-05  -6.0678739761951204e-05  1.3996016371809893e-04  2.5405388964303043e-04  -6.6027131253535570e-04  -1.9493415235393103e-03  -1.7587779271954521e-03  -4.0521605211803576e-04  2.6422913736536793e-04  7.7928018375109732e-05  -5.4149128097170986e-05  -1.5921219967896333e-06  9.0377244003007512e-06  -2.8737666263676735e-06  -2.0267247276808301e-07  5.0123991631521888e-07  -2.0921647305541380e-07  3.7980919154363270e-08  7.1027029738476249e-09  -8.6934466587630370e-09  4.1048501626496558e-09  -1.4004747066935901e-09  3.8584424858316017e-10  -8.8692872694954483e-11  1.6948864471913742e-11  -2.5628499573932503e-12  2.4971581892484786e-13  7.5163337727746570e-15  -1.0635829436608986e-14  2.9973176248875494e-15  -5.0896432452505121e-16  0.0000000000000000e+00  0.0000000000000000e+00  -3.4600187695125022e-08  1.1345099505657191e-07  -2.6233723619392468e-07  3.1618620574621832e-07  6.1728858133608751e-07  -4.6226375222569898e-06  1.1778198659753825e-05  -5.5692548323609765e-06  -6.0678739761951190e-05  1.6834967610422912e-04  7.5852954864610183e-05  -1.0431577870312172e-03  6.5454571798360910e-06  5.2997988092584750e-03  8.2561660603384275e-03  4.2289782973672745e-03  -4.4629771120977376e-04  -7.9883517627551710e-04  1.4773130224581134e-04  1.0162080091744606e-04  -5.1934353254216793e-05  2.7060909721445772e-06  6.5168397481507352e-06  -3.2992320235932300e-06  7.0743523082737553e-07  7.0809952902085756e-08  -1.2845451899666888e-07  6.3834505631728547e-08  -2.2155771209510641e-08  6.1257216915256375e-09  -1.4004747066935878e-09  2.6380915134241723e-10  -3.8739775451517377e-11  3.4661802437367013e-12  2.0975909330603730e-13  -1.7799371234139696e-13  4.6505255637541106e-14  -7.9562276081645312e-15  6.8287927569931326e-16  0.0000000000000000e+00  0.0000000000000000e+00  -3.0498468064815877e-08  1.4810925630181893e-07  -5.5829260410434236e-07  1.6800721286469351e-06  -3.6514330207624455e-06  3.3625009946316858e-06  1.3094812895178925e-05  -7.1113836798459187e-05  1.3996016371809901e-04  7.5852954864610021e-05  -1.0474051812961811e-03  1.3252441906404550e-03  4.6323198953548521e-03  -8.2759410044789782e-03  -2.9870803519941456e-02  -2.7140614555436031e-02  -4.9786858620196311e-03  4.3823422401774803e-03  5.8778940733982877e-04  -8.2337671488752419e-04  1.3952655773833865e-04  7.4125925105213353e-05  -5.0658606773421786e-05  1.2901495056394491e-05  3.8577280402146794e-07  -1.8704337614454204e-06  9.9172752784118861e-07  -3.5130971156313508e-07  9.7525167535208400e-08  -2.2155771209510645e-08  4.1048501626496541e-09  -5.8243858481949245e-10  4.6679306671013114e-11  4.8039008110329619e-12  -2.9615910241478924e-12  7.2010231997321156e-13  -1.1476081200437576e-13  9.8776856743039555e-15  1.0666983325170584e-15  0.0000000000000000e+00  0.0000000000000000e+00  -1.0511950722016683e-08  8.6743420208536732e-08  -4.9488970367507821e-07  2.2644739303346515e-06  -8.4395106670029673e-06  2.4726843374836578e-05  -4.9856952823668244e-05  2.7137569872471645e-05  2.5405388964303043e-04  -1.0431577870312176e-03  1.3252441906404561e-03  3.5236415711485843e-03  -1.4069783944814947e-02  -6.9231227301110986e-03  7.6698166809307550e-02  1.2945787474234452e-01  6.1972152270912226e-02  -1.1363975598917688e-02  -1.0316540785699622e-02  3.6131126427746980e-03  5.8254626635864204e-04  -7.4344362389852962e-04  2.3059718611293466e-04  -7.0926201608151802e-06  -2.6629243924090618e-05  1.5382327439346575e-05  -5.5860992031693638e-06  1.5580258560291902e-06  -3.5130971156313566e-07  6.3834505631728693e-08  -8.6934466587630585e-09  5.9976253805163330e-10  1.0035072183560353e-10  -4.8943482673376305e-11  1.1046701667286765e-11  -1.6182931508025946e-12  1.0967424677527727e-13  2.0755158989652299e-14  -9.0883651426216908e-15  0.0000000000000000e+00  0.0000000000000000e+00  2.8449138142960532e-09  7.0159684394657528e-09  -1.6060312684529219e-07  1.2972637591839137e-06  -7.5219353011819232e-06  3.4626322639681143e-05  -1.2797843777256982e-04  3.6289068556739733e-04  -6.6027131253535668e-04  6.5454571798377224e-06  4.6323198953548512e-03  -1.4069783944814951e-02  4.2071258889653700e-03  7.9505067865029991e-02  -9.2104593220367154e-02  -4.6165941448224979e-01  -4.2278557124446431e-01  -5.1748710118380836e-02  7.0365650228596879e-02  -2.5516120110957424e-03  -9.9843250331564434e-03  4.0240691376183160e-03  -3.5364993921859519e-04  -3.6518125776655231e-04  2.3792790806328510e-04  -8.9135808742422823e-05  2.4999321329371927e-05  -5.5860992031693400e-06  9.9172752784118543e-07  -1.2845451899666832e-07  7.1027029738475579e-09  1.9870980940513506e-09  -8.0261356066091123e-10  1.6725390983889100e-10  -2.2096769838180085e-11  9.4181757108368969e-13  4.3179817609439412e-13  -1.4922310134667038e-13  2.5335987006223206e-14  0.0000000000000000e+00  0.0000000000000000e+00  2.8821950070412847e-09  -1.6815498886247504e-08  5.2769606829932122e-08  5.9852874229767990e-08  -2.2468992277715584e-06  1.9289708903930930e-05  -1.1473427771671134e-04  5.3256319145659234e-04  -1.9493415235393109e-03  5.2997988092584811e-03  -8.2759410044789903e-03  -6.9231227301110847e-03  7.9505067865030005e-02  -1.5621570281683392e-01  -2.2899602729717236e-01  1.0890218741306907e+00  2.0661755529461079e+00  8.9169242807588045e-01  -2.5734132186368236e-01  -1.0697436456460258e-01  6.7622935218201383e-02  -1.0096643892607272e-02  -4.6671287743683355e-03  3.6620956490678595e-03  -1.4287904564008124e-03  4.0341848664237002e-04  -8.9135808742423270e-05  1.5382327439346602e-05  -1.8704337614454310e-06  7.0809952902087834e-08  3.7980919154362833e-08  -1.3038497876869109e-08  2.4868928710306973e-09  -2.8711527566069343e-10  2.0013661185482802e-12  8.3692327431030608e-12  -2.3440140946272876e-12  3.7418132987644502e-13  -2.2937398941366082e-14  0.0000000000000000e+00  0.0000000000000000e+00  -2.7357333023825207e-10  -3.8221997929686648e-09  4.2985736000572184e-08  -2.5762334720248679e-07  9.1415806925050619e-07  9.4228504935614717e-08  -3.0738276165005275e-05  2.8620535615633136e-04  -1.7587779271954515e-03  8.2561660603384275e-03  -2.9870803519941487e-02  7.6698166809307619e-02  -9.2104593220367265e-02  -2.2899602729717217e-01  1.2418454366484122e+00  -6.9811998510597995e-01  -7.2297873987383392e+00  -6.6816320618049687e+00  -2.5756194396422277e-01  1.0470814832417332e+00  -2.4484967914083164e-01  -5.0552889272034468e-02  5.5841608935778532e-02  -2.3043049468913994e-02  6.5606500256495089e-03  -1.4287904564008105e-03  2.3792790806328551e-04  -2.6629243924090553e-05  3.8577280402146164e-07  7.0743523082737627e-07  -2.0921647305541364e-07  3.6023339376624839e-08  -3.4309979785963654e-09  -1.7443451372577675e-10  1.5249682343986562e-10  -3.5606660847979033e-11  4.8343319657744764e-12  -1.8570920036763591e-13  -1.0096063351377035e-13  0.0000000000000000e+00  0.0000000000000000e+00  -5.5242812142299904e-10  3.1219287011879680e-09  -7.6383669847892601e-09  -3.6432327501451426e-08  5.7273785662927278e-07  -3.8720707310359815e-06  1.5644506302739606e-05  -1.2764977623975211e-05  -4.0521605211803479e-04  4.2289782973672701e-03  -2.7140614555436014e-02  1.2945787474234444e-01  -4.6165941448224962e-01  1.0890218741306907e+00  -6.9811998510598106e-01  -5.6452733054093320e+00  1.4729357927713279e+01  3.4023969015411922e+01  1.2219949927538622e+01  -5.4536296173131937e+00  -2.6967221874236275e-01  8.3480946977432091e-01  -3.7487286587971141e-01  1.0788785259881961e-01  -2.3043049468913990e-02  3.6620956490678561e-03  -3.6518125776655361e-04  -7.0926201608149608e-06  1.2901495056394435e-05  -3.2992320235932165e-06  5.0123991631521613e-07  -3.4604161306328742e-08  -5.9623298286149575e-09  2.6339416377235729e-09  -5.1562909772813255e-10  5.5793555206555431e-11  1.0622732164438228e-12  -1.9934567749085954e-12  4.5988139026552737e-13  0.0000000000000000e+00  0.0000000000000000e+00  9.2552940290255955e-11  5.2817904120598900e-10  -7.6923589387964141e-09  4.8645516826212006e-08  -1.6545790118185200e-07  -1.8252353161394941e-07  7.1378341459799114e-06  -5.6808241414886490e-05  2.6422913736536804e-04  -4.4629771120977435e-04  -4.9786858620196276e-03  6.1972152270912226e-02  -4.2278557124446425e-01  2.0661755529461079e+00  -7.2297873987383428e+00  1.4729357927713293e+01  6.0866255837985834e+00  -1.1586401841071020e+02  -1.0826845063683763e+02  9.4525414924905569e+00  1.1857371537928312e+01  -6.1805781644496136e+00  1.8052215783153951e+00  -3.7487286587971203e-01  5.5841608935778643e-02  -4.6671287743683581e-03  -3.5364993921859183e-04  2.3059718611293366e-04  -5.0658606773421711e-05  6.5168397481507276e-06  -2.0267247276808304e-07  -1.4167014187514968e-07  4.3052079781711126e-08  -6.9552170959755932e-09  5.1065737569122000e-10  7.7781881522572679e-11  -3.5733525582002969e-11  6.8916710923870126e-12  -6.1564950710072045e-13  0.0000000000000000e+00  0.0000000000000000e+00  8.5026256482100946e-11  -6.2537785555350493e-10  2.2701298875278918e-09  1.4640129971942002e-09  -8.8197178605469530e-08  7.0889189939540202e-07  -3.1506153339146541e-06  3.3504935159842000e-06  7.7928018375109692e-05  -7.9883517627551764e-04  4.3823422401774855e-03  -1.1363975598917718e-02  -5.1748710118380691e-02  8.9169242807587956e-01  -6.6816320618049669e+00  3.4023969015411922e+01  -1.1586401841071023e+02  1.6459636606957588e+02  6.0081308001484251e+02  1.3715604244859699e+02  -1.0430209758198409e+02  3.1147328083696920e+01  -6.1805781644495887e+00  8.3480946977431802e-01  -5.0552889272034059e-02  -1.0096643892607286e-02  4.0240691376183229e-03  -7.4344362389852745e-04  7.4125925105213015e-05  2.7060909721446424e-06  -2.8737666263676786e-06  6.5702394759746376e-07  -8.3134059544920790e-08  1.7155289365773961e-09  2.0534169562333692e-09  -5.7970684168449091e-10  8.7123736087645024e-11  -4.7781537061746455e-12  -1.4121382987710902e-12  0.0000000000000000e+00  0.0000000000000000e+00  -3.3063395688174386e-11  2.8550971952421708e-11  9.1022996324383974e-10  -8.6561849339821703e-09  4.3292184716908385e-08  -7.9423273810561052e-08  -7.7722398471171956e-07  9.3568936658232545e-06  -5.4149128097171033e-05  1.4773130224581151e-04  5.8778940733982866e-04  -1.0316540785699631e-02  7.0365650228596921e-02  -2.5734132186368258e-01  -2.5756194396422077e-01  1.2219949927538623e+01  -1.0826845063683766e+02  6.0081308001484274e+02  -1.9542175654416217e+03  -1.8532004319466505e+03  5.7569327163208425e+02  -1.0430209758198453e+02  1.1857371537928353e+01  -2.6967221874237357e-01  -2.4484967914082961e-01  6.7622935218200966e-02  -9.9843250331564139e-03  5.8254626635863402e-04  1.3952655773833973e-04  -5.1934353254216929e-05  9.0377244003007597e-06  -7.6160983663705935e-07  -7.3938842036326166e-08  4.1433453439022907e-08  -8.346782815293908