<?xml version="1.0"?>
<VTKFile type="UnstructuredGrid"  version="0.1"  >
<UnstructuredGrid>
<Piece  NumberOfPoints="1681" NumberOfCells="3200">
<Points>
<DataArray  type="Float64"  NumberOfComponents="3"  format="ascii">-2 -2 0  -1.9 -2 0  -1.8 -2 0  -1.7 -2 0  -1.6 -2 0  -1.5 -2 0  -1.4 -2 0  -1.3 -2 0  -1.2 -2 0  -1.1 -2 0  -1 -2 0  -0.8999999999999999 -2 0  -0.8 -2 0  -0.7 -2 0  -0.6000000000000001 -2 0  -0.5 -2 0  -0.3999999999999999 -2 0  -0.3 -2 0  -0.2 -2 0  -0.1000000000000001 -2 0  0 -2 0  0.1000000000000001 -2 0  0.2000000000000002 -2 0  0.2999999999999998 -2 0  0.3999999999999999 -2 0  0.5 -2 0  0.6000000000000001 -2 0  0.7000000000000002 -2 0  0.7999999999999998 -2 0  0.8999999999999999 -2 0  1 -2 0  1.1 -2 0  1.2 -2 0  1.3 -2 0  1.4 -2 0  1.5 -2 0  1.6 -2 0  1.7 -2 0  1.8 -2 0  1.9 -2 0  2 -2 0  -2 -1.9 0  -1.9 -1.9 0  -1.8 -1.9 0  -1.7 -1.9 0  -1.6 -1.9 0  -1.5 -1.9 0  -1.4 -1.9 0  -1.3 -1.9 0  -1.2 -1.9 0  -1.1 -1.9 0  -1 -1.9 0  -0.8999999999999999 -1.9 0  -0.8 -1.9 0  -0.7 -1.9 0  -0.6000000000000001 -1.9 0  -0.5 -1.9 0  -0.3999999999999999 -1.9 0  -0.3 -1.9 0  -0.2 -1.9 0  -0.1000000000000001 -1.9 0  0 -1.9 0  0.1000000000000001 -1.9 0  0.2000000000000002 -1.9 0  0.2999999999999998 -1.9 0  0.3999999999999999 -1.9 0  0.5 -1.9 0  0.6000000000000001 -1.9 0  0.7000000000000002 -1.9 0  0.7999999999999998 -1.9 0  0.8999999999999999 -1.9 0  1 -1.9 0  1.1 -1.9 0  1.2 -1.9 0  1.3 -1.9 0  1.4 -1.9 0  1.5 -1.9 0  1.6 -1.9 0  1.7 -1.9 0  1.8 -1.9 0  1.9 -1.9 0  2 -1.9 0  -2 -1.8 0  -1.9 -1.8 0  -1.8 -1.8 0  -1.7 -1.8 0  -1.6 -1.8 0  -1.5 -1.8 0  -1.4 -1.8 0  -1.3 -1.8 0  -1.2 -1.8 0  -1.1 -1.8 0  -1 -1.8 0  -0.8999999999999999 -1.8 0  -0.8 -1.8 0  -0.7 -1.8 0  -0.6000000000000001 -1.8 0  -0.5 -1.8 0  -0.3999999999999999 -1.8 0  -0.3 -1.8 0  -0.2 -1.8 0  -0.1000000000000001 -1.8 0  0 -1.8 0  0.1000000000000001 -1.8 0  0.2000000000000002 -1.8 0  0.2999999999999998 -1.8 0  0.3999999999999999 -1.8 0  0.5 -1.8 0  0.6000000000000001 -1.8 0  0.7000000000000002 -1.8 0  0.7999999999999998 -1.8 0  0.8999999999999999 -1.8 0  1 -1.8 0  1.1 -1.8 0  1.2 -1.8 0  1.3 -1.8 0  1.4 -1.8 0  1.5 -1.8 0  1.6 -1.8 0  1.7 -1.8 0  1.8 -1.8 0  1.9 -1.8 0  2 -1.8 0  -2 -1.7 0  -1.9 -1.7 0  -1.8 -1.7 0  -1.7 -1.7 0  -1.6 -1.7 0  -1.5 -1.7 0  -1.4 -1.7 0  -1.3 -1.7 0  -1.2 -1.7 0  -1.1 -1.7 0  -1 -1.7 0  -0.8999999999999999 -1.7 0  -0.8 -1.7 0  -0.7 -1.7 0  -0.6000000000000001 -1.7 0  -0.5 -1.7 0  -0.3999999999999999 -1.7 0  -0.3 -1.7 0  -0.2 -1.7 0  -0.1000000000000001 -1.7 0  0 -1.7 0  0.1000000000000001 -1.7 0  0.2000000000000002 -1.7 0  0.2999999999999998 -1.7 0  0.3999999999999999 -1.7 0  0.5 -1.7 0  0.6000000000000001 -1.7 0  0.7000000000000002 -1.7 0  0.7999999999999998 -1.7 0  0.8999999999999999 -1.7 0  1 -1.7 0  1.1 -1.7 0  1.2 -1.7 0  1.3 -1.7 0  1.4 -1.7 0  1.5 -1.7 0  1.6 -1.7 0  1.7 -1.7 0  1.8 -1.7 0  1.9 -1.7 0  2 -1.7 0  -2 -1.6 0  -1.9 -1.6 0  -1.8 -1.6 0  -1.7 -1.6 0  -1.6 -1.6 0  -1.5 -1.6 0  -1.4 -1.6 0  -1.3 -1.6 0  -1.2 -1.6 0  -1.1 -1.6 0  -1 -1.6 0  -0.8999999999999999 -1.6 0  -0.8 -1.6 0  -0.7 -1.6 0  -0.6000000000000001 -1.6 0  -0.5 -1.6 0  -0.3999999999999999 -1.6 0  -0.3 -1.6 0  -0.2 -1.6 0  -0.1000000000000001 -1.6 0  0 -1.6 0  0.1000000000000001 -1.6 0  0.2000000000000002 -1.6 0  0.2999999999999998 -1.6 0  0.3999999999999999 -1.6 0  0.5 -1.6 0  0.6000000000000001 -1.6 0  0.7000000000000002 -1.6 0  0.7999999999999998 -1.6 0  0.8999999999999999 -1.6 0  1 -1.6 0  1.1 -1.6 0  1.2 -1.6 0  1.3 -1.6 0  1.4 -1.6 0  1.5 -1.6 0  1.6 -1.6 0  1.7 -1.6 0  1.8 -1.6 0  1.9 -1.6 0  2 -1.6 0  -2 -1.5 0  -1.9 -1.5 0  -1.8 -1.5 0  -1.7 -1.5 0  -1.6 -1.5 0  -1.5 -1.5 0  -1.4 -1.5 0  -1.3 -1.5 0  -1.2 -1.5 0  -1.1 -1.5 0  -1 -1.5 0  -0.8999999999999999 -1.5 0  -0.8 -1.5 0  -0.7 -1.5 0  -0.6000000000000001 -1.5 0  -0.5 -1.5 0  -0.3999999999999999 -1.5 0  -0.3 -1.5 0  -0.2 -1.5 0  -0.1000000000000001 -1.5 0  0 -1.5 0  0.1000000000000001 -1.5 0  0.2000000000000002 -1.5 0  0.2999999999999998 -1.5 0  0.3999999999999999 -1.5 0  0.5 -1.5 0  0.6000000000000001 -1.5 0  0.7000000000000002 -1.5 0  0.7999999999999998 -1.5 0  0.8999999999999999 -1.5 0  1 -1.5 0  1.1 -1.5 0  1.2 -1.5 0  1.3 -1.5 0  1.4 -1.5 0  1.5 -1.5 0  1.6 -1.5 0  1.7 -1.5 0  1.8 -1.5 0  1.9 -1.5 0  2 -1.5 0  -2 -1.4 0  -1.9 -1.4 0  -1.8 -1.4 0  -1.7 -1.4 0  -1.6 -1.4 0  -1.5 -1.4 0  -1.4 -1.4 0  -1.3 -1.4 0  -1.2 -1.4 0  -1.1 -1.4 0  -1 -1.4 0  -0.8999999999999999 -1.4 0  -0.8 -1.4 0  -0.7 -1.4 0  -0.6000000000000001 -1.4 0  -0.5 -1.4 0  -0.3999999999999999 -1.4 0  -0.3 -1.4 0  -0.2 -1.4 0  -0.1000000000000001 -1.4 0  0 -1.4 0  0.1000000000000001 -1.4 0  0.2000000000000002 -1.4 0  0.2999999999999998 -1.4 0  0.3999999999999999 -1.4 0  0.5 -1.4 0  0.6000000000000001 -1.4 0  0.7000000000000002 -1.4 0  0.7999999999999998 -1.4 0  0.8999999999999999 -1.4 0  1 -1.4 0  1.1 -1.4 0  1.2 -1.4 0  1.3 -1.4 0  1.4 -1.4 0  1.5 -1.4 0  1.6 -1.4 0  1.7 -1.4 0  1.8 -1.4 0  1.9 -1.4 0  2 -1.4 0  -2 -1.3 0  -1.9 -1.3 0  -1.8 -1.3 0  -1.7 -1.3 0  -1.6 -1.3 0  -1.5 -1.3 0  -1.4 -1.3 0  -1.3 -1.3 0  -1.2 -1.3 0  -1.1 -1.3 0  -1 -1.3 0  -0.8999999999999999 -1.3 0  -0.8 -1.3 0  -0.7 -1.3 0  -0.6000000000000001 -1.3 0  -0.5 -1.3 0  -0.3999999999999999 -1.3 0  -0.3 -1.3 0  -0.2 -1.3 0  -0.1000000000000001 -1.3 0  0 -1.3 0  0.1000000000000001 -1.3 0  0.2000000000000002 -1.3 0  0.2999999999999998 -1.3 0  0.3999999999999999 -1.3 0  0.5 -1.3 0  0.6000000000000001 -1.3 0  0.7000000000000002 -1.3 0  0.7999999999999998 -1.3 0  0.8999999999999999 -1.3 0  1 -1.3 0  1.1 -1.3 0  1.2 -1.3 0  1.3 -1.3 0  1.4 -1.3 0  1.5 -1.3 0  1.6 -1.3 0  1.7 -1.3 0  1.8 -1.3 0  1.9 -1.3 0  2 -1.3 0  -2 -1.2 0  -1.9 -1.2 0  -1.8 -1.2 0  -1.7 -1.2 0  -1.6 -1.2 0  -1.5 -1.2 0  -1.4 -1.2 0  -1.3 -1.2 0  -1.2 -1.2 0  -1.1 -1.2 0  -1 -1.2 0  -0.8999999999999999 -1.2 0  -0.8 -1.2 0  -0.7 -1.2 0  -0.6000000000000001 -1.2 0  -0.5 -1.2 0  -0.3999999999999999 -1.2 0  -0.3 -1.2 0  -0.2 -1.2 0  -0.1000000000000001 -1.2 0  0 -1.2 0  0.1000000000000001 -1.2 0  0.2000000000000002 -1.2 0  0.2999999999999998 -1.2 0  0.3999999999999999 -1.2 0  0.5 -1.2 0  0.6000000000000001 -1.2 0  0.7000000000000002 -1.2 0  0.7999999999999998 -1.2 0  0.8999999999999999 -1.2 0  1 -1.2 0  1.1 -1.2 0  1.2 -1.2 0  1.3 -1.2 0  1.4 -1.2 0  1.5 -1.2 0  1.6 -1.2 0  1.7 -1.2 0  1.8 -1.2 0  1.9 -1.2 0  2 -1.2 0  -2 -1.1 0  -1.9 -1.1 0  -1.8 -1.1 0  -1.7 -1.1 0  -1.6 -1.1 0  -1.5 -1.1 0  -1.4 -1.1 0  -1.3 -1.1 0  -1.2 -1.1 0  -1.1 -1.1 0  -1 -1.1 0  -0.8999999999999999 -1.1 0  -0.8 -1.1 0  -0.7 -1.1 0  -0.6000000000000001 -1.1 0  -0.5 -1.1 0  -0.3999999999999999 -1.1 0  -0.3 -1.1 0  -0.2 -1.1 0  -0.1000000000000001 -1.1 0  0 -1.1 0  0.1000000000000001 -1.1 0  0.2000000000000002 -1.1 0  0.2999999999999998 -1.1 0  0.3999999999999999 -1.1 0  0.5 -1.1 0  0.6000000000000001 -1.1 0  0.7000000000000002 -1.1 0  0.7999999999999998 -1.1 0  0.8999999999999999 -1.1 0  1 -1.1 0  1.1 -1.1 0  1.2 -1.1 0  1.3 -1.1 0  1.4 -1.1 0  1.5 -1.1 0  1.6 -1.1 0  1.7 -1.1 0  1.8 -1.1 0  1.9 -1.1 0  2 -1.1 0  -2 -1 0  -1.9 -1 0  -1.8 -1 0  -1.7 -1 0  -1.6 -1 0  -1.5 -1 0  -1.4 -1 0  -1.3 -1 0  -1.2 -1 0  -1.1 -1 0  -1 -1 0  -0.8999999999999999 -1 0  -0.8 -1 0  -0.7 -1 0  -0.6000000000000001 -1 0  -0.5 -1 0  -0.3999999999999999 -1 0  -0.3 -1 0  -0.2 -1 0  -0.1000000000000001 -1 0  0 -1 0  0.1000000000000001 -1 0  0.2000000000000002 -1 0  0.2999999999999998 -1 0  0.3999999999999999 -1 0  0.5 -1 0  0.6000000000000001 -1 0  0.7000000000000002 -1 0  0.7999999999999998 -1 0  0.8999999999999999 -1 0  1 -1 0  1.1 -1 0  1.2 -1 0  1.3 -1 0  1.4 -1 0  1.5 -1 0  1.6 -1 0  1.7 -1 0  1.8 -1 0  1.9 -1 0  2 -1 0  -2 -0.8999999999999999 0  -1.9 -0.8999999999999999 0  -1.8 -0.8999999999999999 0  -1.7 -0.8999999999999999 0  -1.6 -0.8999999999999999 0  -1.5 -0.8999999999999999 0  -1.4 -0.8999999999999999 0  -1.3 -0.8999999999999999 0  -1.2 -0.8999999999999999 0  -1.1 -0.8999999999999999 0  -1 -0.8999999999999999 0  -0.8999999999999999 -0.8999999999999999 0  -0.8 -0.8999999999999999 0  -0.7 -0.8999999999999999 0  -0.6000000000000001 -0.8999999999999999 0  -0.5 -0.8999999999999999 0  -0.3999999999999999 -0.8999999999999999 0  -0.3 -0.8999999999999999 0  -0.2 -0.8999999999999999 0  -0.1000000000000001 -0.8999999999999999 0  0 -0.8999999999999999 0  0.1000000000000001 -0.8999999999999999 0  0.2000000000000002 -0.8999999999999999 0  0.2999999999999998 -0.8999999999999999 0  0.3999999999999999 -0.8999999999999999 0  0.5 -0.8999999999999999 0  0.6000000000000001 -0.8999999999999999 0  0.7000000000000002 -0.8999999999999999 0  0.7999999999999998 -0.8999999999999999 0  0.8999999999999999 -0.8999999999999999 0  1 -0.8999999999999999 0  1.1 -0.8999999999999999 0  1.2 -0.8999999999999999 0  1.3 -0.8999999999999999 0  1.4 -0.8999999999999999 0  1.5 -0.8999999999999999 0  1.6 -0.8999999999999999 0  1.7 -0.8999999999999999 0  1.8 -0.8999999999999999 0  1.9 -0.8999999999999999 0  2 -0.8999999999999999 0  -2 -0.8 0  -1.9 -0.8 0  -1.8 -0.8 0  -1.7 -0.8 0  -1.6 -0.8 0  -1.5 -0.8 0  -1.4 -0.8 0  -1.3 -0.8 0  -1.2 -0.8 0  -1.1 -0.8 0  -1 -0.8 0  -0.8999999999999999 -0.8 0  -0.8 -0.8 0  -0.7 -0.8 0  -0.6000000000000001 -0.8 0  -0.5 -0.8 0  -0.3999999999999999 -0.8 0  -0.3 -0.8 0  -0.2 -0.8 0  -0.1000000000000001 -0.8 0  0 -0.8 0  0.1000000000000001 -0.8 0  0.2000000000000002 -0.8 0  0.2999999999999998 -0.8 0  0.3999999999999999 -0.8 0  0.5 -0.8 0  0.6000000000000001 -0.8 0  0.7000000000000002 -0.8 0  0.7999999999999998 -0.8 0  0.8999999999999999 -0.8 0  1 -0.8 0  1.1 -0.8 0  1.2 -0.8 0  1.3 -0.8 0  1.4 -0.8 0  1.5 -0.8 0  1.6 -0.8 0  1.7 -0.8 0  1.8 -0.8 0  1.9 -0.8 0  2 -0.8 0  -2 -0.7 0  -1.9 -0.7 0  -1.8 -0.7 0  -1.7 -0.7 0  -1.6 -0.7 0  -1.5 -0.7 0  -1.4 -0.7 0  -1.3 -0.7 0  -1.2 -0.7 0  -1.1 -0.7 0  -1 -0.7 0  -0.8999999999999999 -0.7 0  -0.8 -0.7 0  -0.7 -0.7 0  -0.6000000000000001 -0.7 0  -0.5 -0.7 0  -0.3999999999999999 -0.7 0  -0.3 -0.7 0  -0.2 -0.7 0  -0.1000000000000001 -0.7 0  0 -0.7 0  0.1000000000000001 -0.7 0  0.2000000000000002 -0.7 0  0.2999999999999998 -0.7 0  0.3999999999999999 -0.7 0  0.5 -0.7 0  0.600000000000000
[...]
<PointData  Scalars="f_1726"> 
<DataArray  type="Float64"  Name="f_1726"  format="ascii">0.0000000000000000e+00  0.0000000000000000e+00  0.0000000000000000e+00  0.0000000000000000e+00  0.0000000000000000e+00  0.0000000000000000e+00  0.0000000000000000e+00  0.0000000000000000e+00  0.0000000000000000e+00  0.0000000000000000e+00  0.0000000000000000e+00  0.0000000000000000e+00  0.0000000000000000e+00  0.0000000000000000e+00  0.0000000000000000e+00  0.0000000000000000e+00  0.0000000000000000e+00  0.0000000000000000e+00  0.0000000000000000e+00  0.0000000000000000e+00  0.0000000000000000e+00  0.0000000000000000e+00  0.0000000000000000e+00  0.0000000000000000e+00  0.0000000000000000e+00  0.0000000000000000e+00  0.0000000000000000e+00  0.0000000000000000e+00  0.0000000000000000e+00  0.0000000000000000e+00  0.0000000000000000e+00  0.0000000000000000e+00  0.0000000000000000e+00  0.0000000000000000e+00  0.0000000000000000e+00  0.0000000000000000e+00  0.0000000000000000e+00  0.0000000000000000e+00  0.0000000000000000e+00  0.0000000000000000e+00  0.0000000000000000e+00  0.0000000000000000e+00  -2.5312347145072501e-12  -2.9497977198731428e-12  1.9383959868215931e-11  -4.6709847305743724e-12  -9.8172986191184459e-11  5.2892737487186014e-11  4.8303912963574365e-10  6.6457795577923056e-11  -2.0050077187504912e-09  -4.0007252613381694e-09  -3.5264546162047496e-09  -1.2154681694238204e-09  3.2894961910243392e-10  3.3326034165986436e-10  -3.1632537452008887e-11  -6.3875755817416368e-11  1.0701643860808286e-11  9.8313539562933286e-12  -3.8230301962765303e-12  -6.9845561010012693e-13  8.3234998878800491e-13  -1.6328169702942351e-13  -7.1185872079395186e-14  5.3174829901683915e-14  -1.1673802479289886e-14  -2.6521888315375893e-15  2.9295310224867380e-15  -1.0508628545814156e-15  1.2333941661621448e-16  7.8959466717559920e-17  -5.8850155617340426e-17  2.2054306379435194e-17  -4.8772231435438128e-18  4.0380887065719762e-20  5.7185000585422996e-19  -3.4398961482441074e-19  1.3995881292559227e-19  -4.6394994798375290e-20  1.4706910115824839e-20  0.0000000000000000e+00  0.0000000000000000e+00  -2.9497977198731415e-12  2.1213764029338305e-11  -1.8871732461931924e-11  -9.2932094928473715e-11  1.9515591416501414e-10  3.6474233857607269e-10  -1.0508237809815923e-09  -2.0526704228917638e-09  3.0606781327094259e-09  1.3118028891812311e-08  1.7125469039238275e-08  1.0029904910951122e-08  8.1123728044044531e-10  -1.9443302380030936e-09  -4.4195052929628358e-10  3.6098009435651463e-10  6.1071900860234401e-11  -7.2310734457284730e-11  3.3012709564550928e-12  1.1335800577643535e-11  -3.8202184252375684e-12  -5.5248487098649389e-13  7.9686511746961945e-13  -2.3049796570572389e-13  -2.1473047941829295e-14  4.3265565838786623e-14  -1.7254259901513864e-14  2.3998623823850313e-15  1.1421298331949270e-15  -9.1995688166237194e-16  3.4657165573212541e-16  -7.3994913586123007e-17  -1.3817314655463882e-18  9.7570385115622744e-18  -5.5352464414987039e-18  2.1639674783517796e-18  -6.8428656549225698e-19  1.8588310475696714e-19  -4.6394994798375344e-20  0.0000000000000000e+00  0.0000000000000000e+00  1.9383959868215944e-11  -1.8871732461931940e-11  -8.4963232592341143e-11  2.5162347590145913e-10  1.3882088840629464e-10  -1.4927676114461381e-09  9.2626332657884242e-11  7.4570435454815458e-09  2.8319488364581616e-09  -3.0333338566788926e-08  -6.4553849942646733e-08  -5.7222745625394598e-08  -1.8570101187930524e-08  6.1016056021319553e-09  4.9703233233885844e-09  -8.8320352538790831e-10  -8.8944646765772617e-10  2.6248892253353948e-10  1.0524740616044729e-10  -6.9271091031792196e-11  2.8217699484527182e-12  1.0073879797973203e-11  -4.1317700277312222e-12  1.2282775252310484e-13  5.5898060980442342e-13  -2.7103195173213920e-13  4.9927644500725329e-14  1.2681333796750133e-14  -1.3269479450317421e-14  5.3772757724176540e-15  -1.2297919270628991e-15  1.4138061792706013e-17  1.4175820309885416e-16  -8.4061921544618425e-17  3.3374510460442600e-17  -1.0656018127618222e-17  2.8876235535834660e-18  -6.8428656549225419e-19  1.3995881292559186e-19  0.0000000000000000e+00  0.0000000000000000e+00  -4.6709847305743337e-12  -9.2932094928473780e-11  2.5162347590145934e-10  4.7222837163107346e-11  -1.5289678861621275e-09  1.7410556821974880e-09  6.6734539833027575e-09  -1.2170914446708197e-08  -3.3626243307896166e-08  3.6559747934367093e-08  1.9426215444764791e-07  2.6183493964132483e-07  1.4999906756912906e-07  6.9206244776663714e-09  -2.9788284449355713e-08  -4.2125705862843824e-09  5.6247483317813842e-09  1.6927982681514371e-10  -1.0008910367002600e-09  2.0843738497014226e-10  1.0263071535112843e-10  -6.7029919783483800e-11  8.9937066533778326e-12  6.4512564989981576e-12  -4.1171010048156828e-12  9.6771153811019636e-13  1.0889979503601476e-13  -1.8711881986636401e-13  8.3263465725966733e-14  -2.0580927120921869e-14  8.6909315817461483e-16  2.0374171866137357e-15  -1.2822234864951467e-15  5.1935791600236069e-16  -1.6727954671241109e-16  4.5497708311890762e-17  -1.0656018127618272e-17  2.1639674783517831e-18  -3.4398961482441213e-19  0.0000000000000000e+00  0.0000000000000000e+00  -9.8172986191184562e-11  1.9515591416501404e-10  1.3882088840629485e-10  -1.5289678861621285e-09  2.2740076250598190e-09  5.0305861655688445e-09  -1.9215917175180351e-08  -1.0682215647544484e-08  1.0366599266505288e-07  7.1375393759347883e-08  -4.2220523353712571e-07  -9.7583758262585697e-07  -8.6974084761481871e-07  -2.5980282475442896e-07  1.0570160233616043e-07  6.6224115063521798e-08  -1.9131445493270968e-08  -1.0197999026328139e-08  5.0057571520011209e-09  5.3890410522360042e-10  -9.6511571423511385e-10  2.3743099780988923e-10  5.9045918502470167e-11  -5.9620785151191223e-11  1.7632791451465330e-11  2.3141250152209997e-13  -2.5549891828488064e-12  1.2772999616128512e-12  -3.4244068640501264e-13  2.4253871417671110e-14  2.8873958538356031e-14  -1.9523762877121743e-14  8.0858712343269434e-15  -2.6278027282830377e-15  7.1629800351085750e-16  -1.6727954671241087e-16  3.3374510460442680e-17  -5.5352464414986932e-18  5.7185000585422900e-19  0.0000000000000000e+00  0.0000000000000000e+00  5.2892737487186292e-11  3.6474233857607284e-10  -1.4927676114461379e-09  1.7410556821974876e-09  5.0305861655688511e-09  -2.0757288964578232e-08  5.6211791004070080e-09  1.0941664393622404e-07  -1.1754322505033717e-07  -5.3450295912437796e-07  3.8879681200090825e-07  2.8590974070582580e-06  4.0037471736413820e-06  2.2304163889460507e-06  1.0895384827268268e-08  -4.4771696974136353e-07  -2.1104697759182031e-08  8.1967235393603506e-08  -9.1834963634274728e-09  -1.1556335745466699e-08  4.7908371277804563e-09  1.9836192836863408e-10  -8.0421276841458127e-10  3.0455548217779673e-10  -2.0169386699895841e-11  -3.3198355638216759e-11  1.9339113072045757e-11  -5.6592013093857291e-12  5.5546193844406546e-13  4.0078496058050373e-13  -2.9633534522725134e-13  1.2588636008885437e-13  -4.1320763186896196e-14  1.1288966569737552e-14  -2.6278027282830377e-15  5.1935791600236000e-16  -8.4061921544618659e-17  9.7570385115622667e-18  4.0380887065716235e-20  0.0000000000000000e+00  0.0000000000000000e+00  4.8303912963574354e-10  -1.0508237809815937e-09  9.2626332657885831e-11  6.6734539833027567e-09  -1.9215917175180351e-08  5.6211791004069757e-09  1.0409617622216607e-07  -2.0776562785813223e-07  -3.2995515094257329e-07  1.3618809622173120e-06  1.5141174725367299e-06  -5.7648233695303915e-06  -1.4797797440140880e-05  -1.3266411363060599e-05  -3.5541829722690340e-06  1.8089315618178844e-06  8.2532827944998111e-07  -3.6429705139800897e-07  -8.9868287905044900e-08  8.0419078942264020e-08  -8.5493464872302030e-09  -9.6125643892335428e-09  4.9779944737151125e-09  -6.8940792379373509e-10  -3.9671693129296671e-10  2.8755263465741742e-10  -9.2804015270735145e-11  1.1603280056708668e-11  5.3974008183425201e-12  -4.4793744945288452e-12  1.9597509366498548e-12  -6.5051888800873335e-13  1.7816931423885776e-13  -4.1320763186896265e-14  8.0858712343269576e-15  -1.2822234864951483e-15  1.4175820309885487e-16  -1.3817314655464489e-18  -4.8772231435437997e-18  0.0000000000000000e+00  0.0000000000000000e+00  6.6457795577922178e-11  -2.0526704228917605e-09  7.4570435454815474e-09  -1.2170914446708204e-08  -1.0682215647544504e-08  1.0941664393622408e-07  -2.0776562785813208e-07  -2.2415107892509053e-07  1.5962800708093565e-06  -6.4395773488232891e-07  -8.2226988424794282e-06  3.1378431318574435e-06  4.1960059455352810e-05  6.1578828187092757e-05  3.3093144129569312e-05  -1.4759795204188711e-06  -6.5685818956628060e-06  3.8740842001953246e-07  1.0819120747656654e-06  -2.9715840118282721e-07  -8.8062866582276047e-08  7.5969885701736705e-08  -1.6380931813763800e-08  -4.0011847191556417e-09  4.1652804057512681e-09  -1.5076059206824455e-09  2.2976272879433551e-10  6.9348905212023251e-11  -6.7345783785840408e-11  3.0503532097789532e-11  -1.0255314780889091e-11  2.8166365105166850e-12  -6.5051888800873072e-13  1.2588636008885399e-13  -1.9523762877121664e-14  2.0374171866137203e-15  1.4138061792707942e-17  -7.3994913586122958e-17  2.2054306379435142e-17  0.0000000000000000e+00  0.0000000000000000e+00  -2.0050077187504921e-09  3.0606781327094292e-09  2.8319488364581443e-09  -3.3626243307896146e-08  1.0366599266505292e-07  -1.1754322505033713e-07  -3.2995515094257382e-07  1.5962800708093569e-06  -1.4260095925259851e-06  -7.0161170549374273e-06  1.6183211706880905e-05  2.9375557814655898e-05  -7.6345369645763192e-05  -2.2539703960328396e-04  -2.0336269110488719e-04  -4.6854026061736064e-05  3.0552093935263825e-05  9.0106040587534941e-06  -6.2611158808341098e-06  -1.8409272076249238e-07  1.0450074037716828e-06  -3.3228579100799472e-07  -2.3434464827928790e-08  5.7957003379951682e-08  -2.4191129719183587e-08  4.3916300122011407e-09  8.2126615790750608e-10  -1.0051995082301088e-09  4.7463262004310948e-10  -1.6193306771349154e-10  4.4614117294692677e-11  -1.0255314780889136e-11  1.9597509366498592e-12  -2.9633534522725250e-13  2.8873958538356277e-14  8.6909315817456118e-16  -1.2297919270628938e-15  3.4657165573212344e-16  -5.8850155617340192e-17  0.0000000000000000e+00  0.0000000000000000e+00  -4.0007252613381645e-09  1.3118028891812300e-08  -3.0333338566788933e-08  3.6559747934367186e-08  7.1375393759347685e-08  -5.3450295912437807e-07  1.3618809622173122e-06  -6.4395773488232700e-07  -7.0161170549374332e-06  1.9465813534392553e-05  8.7706701289584913e-06  -1.2061748759604037e-04  7.5683334775869646e-07  6.1280127041616369e-04  9.5463794619971433e-04  4.8898521745047955e-04  -5.1604186169369122e-05  -9.2367130997421574e-05  1.7081767243374652e-05  1.1750135834237825e-05  -6.0050275110120089e-06  3.1289791278396203e-07  7.5352439224463258e-07  -3.8148119357355320e-07  8.1798804783086308e-08  8.1875615769984558e-09  -1.4852845412610972e-08  7.3810096487387529e-09  -2.5618113503704134e-09  7.0830047892100606e-10  -1.6193306771349130e-10  3.0503532097789597e-11  -4.4793744945288371e-12  4.0078496058050272e-13  2.4253871417671252e-14  -2.0580927120921859e-14  5.3772757724176690e-15  -9.1995688166237096e-16  7.8959466717559895e-17  0.0000000000000000e+00  0.0000000000000000e+00  -3.5264546162047430e-09  1.7125469039238252e-08  -6.4553849942646653e-08  1.9426215444764770e-07  -4.2220523353712587e-07  3.8879681200090920e-07  1.5141174725367287e-06  -8.2226988424794299e-06  1.6183211706880905e-05  8.7706701289585082e-06  -1.2110860220155728e-04  1.5323436848534586e-04  5.3562250549746813e-04  -9.5692446901461236e-04  -3.4538794781028455e-03  -3.1381951802381086e-03  -5.7567185681063561e-04  5.0671827154791899e-04  6.7964484788698567e-05  -9.5204802120546638e-05  1.6133075030976701e-05  8.5709783918389318e-06  -5.8575164276111832e-06  1.4917646585026816e-06  4.4605856355033300e-08  -2.1627315045255611e-07  1.1467074710573626e-07  -4.0620983041721608e-08  1.1276568925356370e-08  -2.5618113503704143e-09  4.7463262004310907e-10  -6.7345783785840627e-11  5.3974008183425363e-12  5.5546193844406061e-13  -3.4244068640501123e-13  8.3263465725966317e-14  -1.3269479450317384e-14  1.1421298331949154e-15  1.2333941661621601e-16  0.0000000000000000e+00  0.0000000000000000e+00  -1.2154681694238175e-09  1.0029904910951103e-08  -5.7222745625394525e-08  2.6183493964132457e-07  -9.7583758262585613e-07  2.8590974070582571e-06  -5.7648233695303941e-06  3.1378431318574558e-06  2.9375557814655912e-05  -1.2061748759604038e-04  1.5323436848534578e-04  4.0742905702738900e-04  -1.6268507138047165e-03  -8.0050178449183273e-04  8.8683996791022839e-03  1.4968860698805478e-02  7.1656708129553418e-03  -1.3139854803222968e-03  -1.1928734518624933e-03  4.1777435282657925e-04  6.7358234708293926e-05  -8.5962356988332207e-05  2.6663323210974923e-05  -8.2010030975778760e-07  -3.0790667899311852e-06  1.7786165354657817e-06  -6.4590540350188422e-07  1.8015027707240507e-07  -4.0620983041721668e-08  7.3810096487387669e-09  -1.0051995082301109e-09  6.9348905212023807e-11  1.1603280056708597e-11  -5.6592013093857227e-12  1.2772999616128490e-12  -1.8711881986636358e-13  1.2681333796750132e-14  2.3998623823850285e-15  -1.0508628545814148e-15  0.0000000000000000e+00  0.0000000000000000e+00  3.2894961910243480e-10  8.1123728044043869e-10  -1.8570101187930471e-08  1.4999906756912869e-07  -8.6974084761481734e-07  4.0037471736413770e-06  -1.4797797440140867e-05  4.1960059455352789e-05  -7.6345369645763260e-05  7.5683334775876338e-07  5.3562250549746824e-04  -1.6268507138047163e-03  4.8645848311351718e-04  9.1929539866873657e-03  -1.0649802712888649e-02  -5.3380417988713749e-02  -4.8885541601999212e-02  -5.9835621019316606e-03  8.1361880715952531e-03  -2.9503593217105315e-04  -1.1544602511849372e-03  4.6529213061203027e-04  -4.0891577177828045e-05  -4.2224912066582078e-05  2.7510954580753445e-05  -1.0306530267055815e-05  2.8906032892075839e-06  -6.4590540350188125e-07  1.1467074710573588e-07  -1.4852845412610906e-08  8.2126615790749791e-10  2.2976272879433672e-10  -9.2804015270734912e-11  1.9339113072045696e-11  -2.5549891828487898e-12  1.0889979503601218e-13  4.9927644500725752e-14  -1.7254259901513867e-14  2.9295310224867376e-15  0.0000000000000000e+00  0.0000000000000000e+00  3.3326034165986421e-10  -1.9443302380030932e-09  6.1016056021319611e-09  6.9206244776662755e-09  -2.5980282475442828e-07  2.2304163889460473e-06  -1.3266411363060585e-05  6.1578828187092702e-05  -2.2539703960328382e-04  6.1280127041616413e-04  -9.5692446901461301e-04  -8.0050178449183305e-04  9.1929539866873727e-03  -1.8062795323074470e-02  -2.6478185587500782e-02  1.2592062680048258e-01  2.3890623952295822e-01  1.0310396156751972e-01  -2.9755674629223114e-02  -1.2369153786108021e-02  7.8190554212343270e-03  -1.1674473743268419e-03  -5.3964736116632068e-04  4.2343812414424024e-04  -1.6520714056377775e-04  4.6646178472272870e-05  -1.0306530267055860e-05  1.7786165354657846e-06  -2.1627315045255730e-07  8.1875615769986908e-09  4.3916300122010886e-09  -1.5076059206824411e-09  2.8755263465741576e-10  -3.3198355638216578e-11  2.3141250152207841e-13  9.6771153811019656e-13  -2.7103195173213960e-13  4.3265565838786484e-14  -2.6521888315375767e-15  0.0000000000000000e+00  0.0000000000000000e+00  -3.1632537452009009e-11  -4.4195052929628291e-10  4.9703233233885811e-09  -2.9788284449355713e-08  1.0570160233616060e-07  1.0895384827266781e-08  -3.5541829722690222e-06  3.3093144129569265e-05  -2.0336269110488690e-04  9.5463794619971335e-04  -3.4538794781028464e-03  8.8683996791022873e-03  -1.0649802712888663e-02  -2.6478185587500799e-02  1.4359119819968005e-01  -8.0721708346456089e-02  -8.3596058307834331e-01  -7.7257887766881816e-01  -2.9781184560516562e-02  1.2107117387906127e-01  -2.8311300077348615e-02  -5.8452926014836339e-03  6.4568128205446957e-03  -2.6644049136628841e-03  7.5859005505085619e-04  -1.6520714056377747e-04  2.7510954580753485e-05  -3.0790667899311785e-06  4.4605856355032619e-08  8.1798804783086387e-08  -2.4191129719183567e-08  4.1652804057512772e-09  -3.9671693129296609e-10  -2.0169386699895870e-11  1.7632791451465330e-11  -4.1171010048156780e-12  5.5898060980442463e-13  -2.1473047941829260e-14  -1.1673802479289878e-14  0.0000000000000000e+00  0.0000000000000000e+00  -6.3875755817416381e-11  3.6098009435651494e-10  -8.8320352538791141e-10  -4.2125705862843601e-09  6.6224115063521692e-08  -4.4771696974136353e-07  1.8089315618178859e-06  -1.4759795204188853e-06  -4.6854026061735976e-05  4.8898521745047911e-04  -3.1381951802381064e-03  1.4968860698805472e-02  -5.3380417988713742e-02  1.2592062680048263e-01  -8.0721708346456075e-02  -6.5274754342709107e-01  1.7031154531279251e+00  3.9340986682024330e+00  1.4129594555430520e+00  -6.3058830686750844e-01  -3.1181462577894965e-02  9.6526740362192026e-02  -4.3345526259283937e-02  1.2474777914122125e-02  -2.6644049136628823e-03  4.2343812414423964e-04  -4.2224912066582213e-05  -8.2010030975776325e-07  1.4917646585026757e-06  -3.8148119357355167e-07  5.7957003379951311e-08  -4.0011847191555979e-09  -6.8940792379374263e-10  3.0455548217779807e-10  -5.9620785151191391e-11  6.4512564989981689e-12  1.2282775252310373e-13  -2.3049796570572358e-13  5.3174829901683922e-14  0.0000000000000000e+00  0.0000000000000000e+00  1.0701643860808312e-11  6.1071900860234246e-11  -8.8944646765772566e-10  5.6247483317813825e-09  -1.9131445493270984e-08  -2.1104697759181911e-08  8.2532827944998080e-07  -6.5685818956628085e-06  3.0552093935263845e-05  -5.1604186169369264e-05  -5.7567185681063452e-04  7.1656708129553401e-03  -4.8885541601999184e-02  2.3890623952295817e-01  -8.3596058307834331e-01  1.7031154531279258e+00  7.0377990269807267e-01  -1.3397040195859667e+01  -1.2518785426408815e+01  1.0929715718907027e+00  1.3710355060167989e+00  -7.1464338315345322e-01  2.0873284371508533e-01  -4.3345526259283999e-02  6.4568128205447061e-03  -5.3964736116632317e-04  -4.0891577177827625e-05  2.6663323210974801e-05  -5.8575164276111739e-06  7.5352439224463120e-07  -2.3434464827928747e-08  -1.6380931813763823e-08  4.9779944737151067e-09  -8.0421276841458117e-10  5.9045918502469973e-11  8.9937066533778665e-12  -4.1317700277312400e-12  7.9686511746961986e-13  -7.1185872079395375e-14  0.0000000000000000e+00  0.0000000000000000e+00  9.8313539562933238e-12  -7.2310734457284756e-11  2.6248892253353964e-10  1.6927982681514252e-10  -1.0197999026328138e-08  8.1967235393603532e-08  -3.6429705139800945e-07  3.8740842001953585e-07  9.0106040587534806e-06  -9.2367130997421574e-05  5.0671827154791943e-04  -1.3139854803223003e-03  -5.9835621019316398e-03  1.0310396156751964e-01  -7.7257887766881816e-01  3.9340986682024330e+00  -1.3397040195859663e+01  1.9031828539814438e+01  6.9470376511756228e+01  1.5858978818389021e+01  -1.2060166848909766e+01  3.6014805291125973e+00  -7.1464338315345000e-01  9.6526740362191638e-02  -5.8452926014835845e-03  -1.1674473743268426e-03  4.6529213061203114e-04  -8.5962356988331950e-05  8.5709783918388945e-06  3.1289791278396944e-07  -3.3228579100799541e-07  7.5969885701737036e-08  -9.6125643892335544e-09  1.9836192836863723e-10  2.3743099780988866e-10  -6.7029919783483606e-11  1.0073879797973198e-11  -5.5248487098648915e-13  -1.6328169702942391e-13  0.0000000000000000e+00  0.0000000000000000e+00  -3.8230301962765327e-12  3.3012709564551130e-12  1.0524740616044722e-10  -1.0008910367002596e-09  5.0057571520011234e-09  -9.1834963634274976e-09  -8.9868287905044794e-08  1.0819120747656654e-06  -6.2611158808341124e-06  1.7081767243374666e-05  6.7964484788698512e-05  -1.1928734518624939e-03  8.1361880715952566e-03  -2.9755674629223138e-02  -2.9781184560516254e-02  1.4129594555430509e+00  -1.2518785426408812e+01  6.9470376511756214e+01  -2.2596084301920197e+02  -2.1428050760130355e+02  6.6565841633437230e+01  -1.2060166848909814e+01  1.3710355060168036e+00  -3.1181462577896248e-02  -2.8311300077348365e-02  7.8190554212342750e-03  -1.1544602511849328e-03  6.7358234708292801e-05  1.6133075030976843e-05  -6.0050275110120258e-06  1.0450074037716839e-06  -8.8062866582276404e-08  -8.5493464872301832e-09  4.7908371277804587e-09  -9.651157142351146