<?xml version="1.0"?>
<VTKFile type="UnstructuredGrid"  version="0.1"  >
<UnstructuredGrid>
<Piece  NumberOfPoints="1681" NumberOfCells="3200">
<Points>
<DataArray  type="Float64"  NumberOfComponents="3"  format="ascii">-2 -2 0  -1.9 -2 0  -1.8 -2 0  -1.7 -2 0  -1.6 -2 0  -1.5 -2 0  -1.4 -2 0  -1.3 -2 0  -1.2 -2 0  -1.1 -2 0  -1 -2 0  -0.8999999999999999 -2 0  -0.8 -2 0  -0.7 -2 0  -0.6000000000000001 -2 0  -0.5 -2 0  -0.3999999999999999 -2 0  -0.3 -2 0  -0.2 -2 0  -0.1000000000000001 -2 0  0 -2 0  0.1000000000000001 -2 0  0.2000000000000002 -2 0  0.2999999999999998 -2 0  0.3999999999999999 -2 0  0.5 -2 0  0.6000000000000001 -2 0  0.7000000000000002 -2 0  0.7999999999999998 -2 0  0.8999999999999999 -2 0  1 -2 0  1.1 -2 0  1.2 -2 0  1.3 -2 0  1.4 -2 0  1.5 -2 0  1.6 -2 0  1.7 -2 0  1.8 -2 0  1.9 -2 0  2 -2 0  -2 -1.9 0  -1.9 -1.9 0  -1.8 -1.9 0  -1.7 -1.9 0  -1.6 -1.9 0  -1.5 -1.9 0  -1.4 -1.9 0  -1.3 -1.9 0  -1.2 -1.9 0  -1.1 -1.9 0  -1 -1.9 0  -0.8999999999999999 -1.9 0  -0.8 -1.9 0  -0.7 -1.9 0  -0.6000000000000001 -1.9 0  -0.5 -1.9 0  -0.3999999999999999 -1.9 0  -0.3 -1.9 0  -0.2 -1.9 0  -0.1000000000000001 -1.9 0  0 -1.9 0  0.1000000000000001 -1.9 0  0.2000000000000002 -1.9 0  0.2999999999999998 -1.9 0  0.3999999999999999 -1.9 0  0.5 -1.9 0  0.6000000000000001 -1.9 0  0.7000000000000002 -1.9 0  0.7999999999999998 -1.9 0  0.8999999999999999 -1.9 0  1 -1.9 0  1.1 -1.9 0  1.2 -1.9 0  1.3 -1.9 0  1.4 -1.9 0  1.5 -1.9 0  1.6 -1.9 0  1.7 -1.9 0  1.8 -1.9 0  1.9 -1.9 0  2 -1.9 0  -2 -1.8 0  -1.9 -1.8 0  -1.8 -1.8 0  -1.7 -1.8 0  -1.6 -1.8 0  -1.5 -1.8 0  -1.4 -1.8 0  -1.3 -1.8 0  -1.2 -1.8 0  -1.1 -1.8 0  -1 -1.8 0  -0.8999999999999999 -1.8 0  -0.8 -1.8 0  -0.7 -1.8 0  -0.6000000000000001 -1.8 0  -0.5 -1.8 0  -0.3999999999999999 -1.8 0  -0.3 -1.8 0  -0.2 -1.8 0  -0.1000000000000001 -1.8 0  0 -1.8 0  0.1000000000000001 -1.8 0  0.2000000000000002 -1.8 0  0.2999999999999998 -1.8 0  0.3999999999999999 -1.8 0  0.5 -1.8 0  0.6000000000000001 -1.8 0  0.7000000000000002 -1.8 0  0.7999999999999998 -1.8 0  0.8999999999999999 -1.8 0  1 -1.8 0  1.1 -1.8 0  1.2 -1.8 0  1.3 -1.8 0  1.4 -1.8 0  1.5 -1.8 0  1.6 -1.8 0  1.7 -1.8 0  1.8 -1.8 0  1.9 -1.8 0  2 -1.8 0  -2 -1.7 0  -1.9 -1.7 0  -1.8 -1.7 0  -1.7 -1.7 0  -1.6 -1.7 0  -1.5 -1.7 0  -1.4 -1.7 0  -1.3 -1.7 0  -1.2 -1.7 0  -1.1 -1.7 0  -1 -1.7 0  -0.8999999999999999 -1.7 0  -0.8 -1.7 0  -0.7 -1.7 0  -0.6000000000000001 -1.7 0  -0.5 -1.7 0  -0.3999999999999999 -1.7 0  -0.3 -1.7 0  -0.2 -1.7 0  -0.1000000000000001 -1.7 0  0 -1.7 0  0.1000000000000001 -1.7 0  0.2000000000000002 -1.7 0  0.2999999999999998 -1.7 0  0.3999999999999999 -1.7 0  0.5 -1.7 0  0.6000000000000001 -1.7 0  0.7000000000000002 -1.7 0  0.7999999999999998 -1.7 0  0.8999999999999999 -1.7 0  1 -1.7 0  1.1 -1.7 0  1.2 -1.7 0  1.3 -1.7 0  1.4 -1.7 0  1.5 -1.7 0  1.6 -1.7 0  1.7 -1.7 0  1.8 -1.7 0  1.9 -1.7 0  2 -1.7 0  -2 -1.6 0  -1.9 -1.6 0  -1.8 -1.6 0  -1.7 -1.6 0  -1.6 -1.6 0  -1.5 -1.6 0  -1.4 -1.6 0  -1.3 -1.6 0  -1.2 -1.6 0  -1.1 -1.6 0  -1 -1.6 0  -0.8999999999999999 -1.6 0  -0.8 -1.6 0  -0.7 -1.6 0  -0.6000000000000001 -1.6 0  -0.5 -1.6 0  -0.3999999999999999 -1.6 0  -0.3 -1.6 0  -0.2 -1.6 0  -0.1000000000000001 -1.6 0  0 -1.6 0  0.1000000000000001 -1.6 0  0.2000000000000002 -1.6 0  0.2999999999999998 -1.6 0  0.3999999999999999 -1.6 0  0.5 -1.6 0  0.6000000000000001 -1.6 0  0.7000000000000002 -1.6 0  0.7999999999999998 -1.6 0  0.8999999999999999 -1.6 0  1 -1.6 0  1.1 -1.6 0  1.2 -1.6 0  1.3 -1.6 0  1.4 -1.6 0  1.5 -1.6 0  1.6 -1.6 0  1.7 -1.6 0  1.8 -1.6 0  1.9 -1.6 0  2 -1.6 0  -2 -1.5 0  -1.9 -1.5 0  -1.8 -1.5 0  -1.7 -1.5 0  -1.6 -1.5 0  -1.5 -1.5 0  -1.4 -1.5 0  -1.3 -1.5 0  -1.2 -1.5 0  -1.1 -1.5 0  -1 -1.5 0  -0.8999999999999999 -1.5 0  -0.8 -1.5 0  -0.7 -1.5 0  -0.6000000000000001 -1.5 0  -0.5 -1.5 0  -0.3999999999999999 -1.5 0  -0.3 -1.5 0  -0.2 -1.5 0  -0.1000000000000001 -1.5 0  0 -1.5 0  0.1000000000000001 -1.5 0  0.2000000000000002 -1.5 0  0.2999999999999998 -1.5 0  0.3999999999999999 -1.5 0  0.5 -1.5 0  0.6000000000000001 -1.5 0  0.7000000000000002 -1.5 0  0.7999999999999998 -1.5 0  0.8999999999999999 -1.5 0  1 -1.5 0  1.1 -1.5 0  1.2 -1.5 0  1.3 -1.5 0  1.4 -1.5 0  1.5 -1.5 0  1.6 -1.5 0  1.7 -1.5 0  1.8 -1.5 0  1.9 -1.5 0  2 -1.5 0  -2 -1.4 0  -1.9 -1.4 0  -1.8 -1.4 0  -1.7 -1.4 0  -1.6 -1.4 0  -1.5 -1.4 0  -1.4 -1.4 0  -1.3 -1.4 0  -1.2 -1.4 0  -1.1 -1.4 0  -1 -1.4 0  -0.8999999999999999 -1.4 0  -0.8 -1.4 0  -0.7 -1.4 0  -0.6000000000000001 -1.4 0  -0.5 -1.4 0  -0.3999999999999999 -1.4 0  -0.3 -1.4 0  -0.2 -1.4 0  -0.1000000000000001 -1.4 0  0 -1.4 0  0.1000000000000001 -1.4 0  0.2000000000000002 -1.4 0  0.2999999999999998 -1.4 0  0.3999999999999999 -1.4 0  0.5 -1.4 0  0.6000000000000001 -1.4 0  0.7000000000000002 -1.4 0  0.7999999999999998 -1.4 0  0.8999999999999999 -1.4 0  1 -1.4 0  1.1 -1.4 0  1.2 -1.4 0  1.3 -1.4 0  1.4 -1.4 0  1.5 -1.4 0  1.6 -1.4 0  1.7 -1.4 0  1.8 -1.4 0  1.9 -1.4 0  2 -1.4 0  -2 -1.3 0  -1.9 -1.3 0  -1.8 -1.3 0  -1.7 -1.3 0  -1.6 -1.3 0  -1.5 -1.3 0  -1.4 -1.3 0  -1.3 -1.3 0  -1.2 -1.3 0  -1.1 -1.3 0  -1 -1.3 0  -0.8999999999999999 -1.3 0  -0.8 -1.3 0  -0.7 -1.3 0  -0.6000000000000001 -1.3 0  -0.5 -1.3 0  -0.3999999999999999 -1.3 0  -0.3 -1.3 0  -0.2 -1.3 0  -0.1000000000000001 -1.3 0  0 -1.3 0  0.1000000000000001 -1.3 0  0.2000000000000002 -1.3 0  0.2999999999999998 -1.3 0  0.3999999999999999 -1.3 0  0.5 -1.3 0  0.6000000000000001 -1.3 0  0.7000000000000002 -1.3 0  0.7999999999999998 -1.3 0  0.8999999999999999 -1.3 0  1 -1.3 0  1.1 -1.3 0  1.2 -1.3 0  1.3 -1.3 0  1.4 -1.3 0  1.5 -1.3 0  1.6 -1.3 0  1.7 -1.3 0  1.8 -1.3 0  1.9 -1.3 0  2 -1.3 0  -2 -1.2 0  -1.9 -1.2 0  -1.8 -1.2 0  -1.7 -1.2 0  -1.6 -1.2 0  -1.5 -1.2 0  -1.4 -1.2 0  -1.3 -1.2 0  -1.2 -1.2 0  -1.1 -1.2 0  -1 -1.2 0  -0.8999999999999999 -1.2 0  -0.8 -1.2 0  -0.7 -1.2 0  -0.6000000000000001 -1.2 0  -0.5 -1.2 0  -0.3999999999999999 -1.2 0  -0.3 -1.2 0  -0.2 -1.2 0  -0.1000000000000001 -1.2 0  0 -1.2 0  0.1000000000000001 -1.2 0  0.2000000000000002 -1.2 0  0.2999999999999998 -1.2 0  0.3999999999999999 -1.2 0  0.5 -1.2 0  0.6000000000000001 -1.2 0  0.7000000000000002 -1.2 0  0.7999999999999998 -1.2 0  0.8999999999999999 -1.2 0  1 -1.2 0  1.1 -1.2 0  1.2 -1.2 0  1.3 -1.2 0  1.4 -1.2 0  1.5 -1.2 0  1.6 -1.2 0  1.7 -1.2 0  1.8 -1.2 0  1.9 -1.2 0  2 -1.2 0  -2 -1.1 0  -1.9 -1.1 0  -1.8 -1.1 0  -1.7 -1.1 0  -1.6 -1.1 0  -1.5 -1.1 0  -1.4 -1.1 0  -1.3 -1.1 0  -1.2 -1.1 0  -1.1 -1.1 0  -1 -1.1 0  -0.8999999999999999 -1.1 0  -0.8 -1.1 0  -0.7 -1.1 0  -0.6000000000000001 -1.1 0  -0.5 -1.1 0  -0.3999999999999999 -1.1 0  -0.3 -1.1 0  -0.2 -1.1 0  -0.1000000000000001 -1.1 0  0 -1.1 0  0.1000000000000001 -1.1 0  0.2000000000000002 -1.1 0  0.2999999999999998 -1.1 0  0.3999999999999999 -1.1 0  0.5 -1.1 0  0.6000000000000001 -1.1 0  0.7000000000000002 -1.1 0  0.7999999999999998 -1.1 0  0.8999999999999999 -1.1 0  1 -1.1 0  1.1 -1.1 0  1.2 -1.1 0  1.3 -1.1 0  1.4 -1.1 0  1.5 -1.1 0  1.6 -1.1 0  1.7 -1.1 0  1.8 -1.1 0  1.9 -1.1 0  2 -1.1 0  -2 -1 0  -1.9 -1 0  -1.8 -1 0  -1.7 -1 0  -1.6 -1 0  -1.5 -1 0  -1.4 -1 0  -1.3 -1 0  -1.2 -1 0  -1.1 -1 0  -1 -1 0  -0.8999999999999999 -1 0  -0.8 -1 0  -0.7 -1 0  -0.6000000000000001 -1 0  -0.5 -1 0  -0.3999999999999999 -1 0  -0.3 -1 0  -0.2 -1 0  -0.1000000000000001 -1 0  0 -1 0  0.1000000000000001 -1 0  0.2000000000000002 -1 0  0.2999999999999998 -1 0  0.3999999999999999 -1 0  0.5 -1 0  0.6000000000000001 -1 0  0.7000000000000002 -1 0  0.7999999999999998 -1 0  0.8999999999999999 -1 0  1 -1 0  1.1 -1 0  1.2 -1 0  1.3 -1 0  1.4 -1 0  1.5 -1 0  1.6 -1 0  1.7 -1 0  1.8 -1 0  1.9 -1 0  2 -1 0  -2 -0.8999999999999999 0  -1.9 -0.8999999999999999 0  -1.8 -0.8999999999999999 0  -1.7 -0.8999999999999999 0  -1.6 -0.8999999999999999 0  -1.5 -0.8999999999999999 0  -1.4 -0.8999999999999999 0  -1.3 -0.8999999999999999 0  -1.2 -0.8999999999999999 0  -1.1 -0.8999999999999999 0  -1 -0.8999999999999999 0  -0.8999999999999999 -0.8999999999999999 0  -0.8 -0.8999999999999999 0  -0.7 -0.8999999999999999 0  -0.6000000000000001 -0.8999999999999999 0  -0.5 -0.8999999999999999 0  -0.3999999999999999 -0.8999999999999999 0  -0.3 -0.8999999999999999 0  -0.2 -0.8999999999999999 0  -0.1000000000000001 -0.8999999999999999 0  0 -0.8999999999999999 0  0.1000000000000001 -0.8999999999999999 0  0.2000000000000002 -0.8999999999999999 0  0.2999999999999998 -0.8999999999999999 0  0.3999999999999999 -0.8999999999999999 0  0.5 -0.8999999999999999 0  0.6000000000000001 -0.8999999999999999 0  0.7000000000000002 -0.8999999999999999 0  0.7999999999999998 -0.8999999999999999 0  0.8999999999999999 -0.8999999999999999 0  1 -0.8999999999999999 0  1.1 -0.8999999999999999 0  1.2 -0.8999999999999999 0  1.3 -0.8999999999999999 0  1.4 -0.8999999999999999 0  1.5 -0.8999999999999999 0  1.6 -0.8999999999999999 0  1.7 -0.8999999999999999 0  1.8 -0.8999999999999999 0  1.9 -0.8999999999999999 0  2 -0.8999999999999999 0  -2 -0.8 0  -1.9 -0.8 0  -1.8 -0.8 0  -1.7 -0.8 0  -1.6 -0.8 0  -1.5 -0.8 0  -1.4 -0.8 0  -1.3 -0.8 0  -1.2 -0.8 0  -1.1 -0.8 0  -1 -0.8 0  -0.8999999999999999 -0.8 0  -0.8 -0.8 0  -0.7 -0.8 0  -0.6000000000000001 -0.8 0  -0.5 -0.8 0  -0.3999999999999999 -0.8 0  -0.3 -0.8 0  -0.2 -0.8 0  -0.1000000000000001 -0.8 0  0 -0.8 0  0.1000000000000001 -0.8 0  0.2000000000000002 -0.8 0  0.2999999999999998 -0.8 0  0.3999999999999999 -0.8 0  0.5 -0.8 0  0.6000000000000001 -0.8 0  0.7000000000000002 -0.8 0  0.7999999999999998 -0.8 0  0.8999999999999999 -0.8 0  1 -0.8 0  1.1 -0.8 0  1.2 -0.8 0  1.3 -0.8 0  1.4 -0.8 0  1.5 -0.8 0  1.6 -0.8 0  1.7 -0.8 0  1.8 -0.8 0  1.9 -0.8 0  2 -0.8 0  -2 -0.7 0  -1.9 -0.7 0  -1.8 -0.7 0  -1.7 -0.7 0  -1.6 -0.7 0  -1.5 -0.7 0  -1.4 -0.7 0  -1.3 -0.7 0  -1.2 -0.7 0  -1.1 -0.7 0  -1 -0.7 0  -0.8999999999999999 -0.7 0  -0.8 -0.7 0  -0.7 -0.7 0  -0.6000000000000001 -0.7 0  -0.5 -0.7 0  -0.3999999999999999 -0.7 0  -0.3 -0.7 0  -0.2 -0.7 0  -0.1000000000000001 -0.7 0  0 -0.7 0  0.1000000000000001 -0.7 0  0.2000000000000002 -0.7 0  0.2999999999999998 -0.7 0  0.3999999999999999 -0.7 0  0.5 -0.7 0  0.600000000000000
[...]
<PointData  Scalars="f_1726"> 
<DataArray  type="Float64"  Name="f_1726"  format="ascii">0.0000000000000000e+00  0.0000000000000000e+00  0.0000000000000000e+00  0.0000000000000000e+00  0.0000000000000000e+00  0.0000000000000000e+00  0.0000000000000000e+00  0.0000000000000000e+00  0.0000000000000000e+00  0.0000000000000000e+00  0.0000000000000000e+00  0.0000000000000000e+00  0.0000000000000000e+00  0.0000000000000000e+00  0.0000000000000000e+00  0.0000000000000000e+00  0.0000000000000000e+00  0.0000000000000000e+00  0.0000000000000000e+00  0.0000000000000000e+00  0.0000000000000000e+00  0.0000000000000000e+00  0.0000000000000000e+00  0.0000000000000000e+00  0.0000000000000000e+00  0.0000000000000000e+00  0.0000000000000000e+00  0.0000000000000000e+00  0.0000000000000000e+00  0.0000000000000000e+00  0.0000000000000000e+00  0.0000000000000000e+00  0.0000000000000000e+00  0.0000000000000000e+00  0.0000000000000000e+00  0.0000000000000000e+00  0.0000000000000000e+00  0.0000000000000000e+00  0.0000000000000000e+00  0.0000000000000000e+00  0.0000000000000000e+00  0.0000000000000000e+00  -1.8742962559072614e-11  -2.1842284282665900e-11  1.4353186291823701e-10  -3.4587109372904767e-11  -7.2693875204375183e-10  3.9165336690721404e-10  3.5767462690998226e-09  4.9209817135349641e-10  -1.4846424311349420e-08  -2.9624057916333765e-08  -2.6112239398020910e-08  -9.0001429976792989e-09  2.4357640005969778e-09  2.4676834867802999e-09  -2.3422856114980258e-10  -4.7297901409801136e-10  7.9242161564106769e-11  7.2797950364578319e-11  -2.8308284261566001e-11  -5.1718346284727361e-12  6.1632785717127951e-12  -1.2090473935365889e-12  -5.2710802655800653e-13  3.9374216868163197e-13  -8.6440677167282328e-14  -1.9638588110457592e-14  2.1692216038052986e-14  -7.7812946485185443e-15  9.1328791219805548e-16  5.8466894432571876e-16  -4.3576609352330730e-16  1.6330490268917581e-16  -3.6114237153815033e-17  2.9900721969287598e-19  4.2343616685178770e-18  -2.5471302342733722e-18  1.0363490890204891e-18  -3.4353971421555684e-19  1.0889984404872221e-19  0.0000000000000000e+00  0.0000000000000000e+00  -2.1842284282665919e-11  1.5708096236989652e-10  -1.3973898703727365e-10  -6.8813167178755341e-10  1.4450655134478533e-09  2.7007973446550699e-09  -7.7810053213319643e-09  -1.5199350997311807e-08  2.2663317359691159e-08  9.7134699899188944e-08  1.2680847934383881e-07  7.4268155038957368e-08  6.0069458935099398e-09  -1.4397127474786128e-08  -3.2724986648166676e-09  2.6729391606071374e-09  4.5221738808903713e-10  -5.3543726339726951e-10  2.4444828280666586e-11  8.3937883984515001e-11  -2.8287464019568699e-11  -4.0909691985516781e-12  5.9005247422389087e-12  -1.7067618093274260e-12  -1.5900087467045739e-13  3.2036731954007249e-13  -1.2776213342251707e-13  1.7770193543164045e-14  8.4570966803209275e-15  -6.8119788694963613e-15  2.5662494000235573e-15  -5.4790805726465352e-16  -1.0231268154233609e-17  7.2247668879352189e-17  -4.0986683776753738e-17  1.6023469176264744e-17  -5.0669175020359578e-18  1.3764034022037469e-18  -3.4353971421555723e-19  0.0000000000000000e+00  0.0000000000000000e+00  1.4353186291823701e-10  -1.3973898703727360e-10  -6.2912486078401009e-10  1.8631892810157068e-09  1.0279231313098051e-09  -1.1053454383497503e-08  6.8586760249489397e-10  5.5216960787274460e-08  2.0969651967370872e-08  -2.2460841967382459e-07  -4.7800007861165656e-07  -4.2371565648857385e-07  -1.3750550641896025e-07  4.5180387537964726e-08  3.6803613439258894e-08  -6.5398323251145108e-09  -6.5860592643039182e-09  1.9436443483571526e-09  7.7932251078848827e-10  -5.1292970114300067e-10  2.0894280641398878e-11  7.4593774649130353e-11  -3.0594401415492617e-11  9.0949920746632270e-13  4.1390680132369365e-12  -2.0069026765922655e-12  3.6969782619386642e-13  9.3901116000560051e-14  -9.8256141593766979e-14  3.9816962802618720e-14  -9.1062057233506126e-15  1.0468770885600201e-16  1.0496729828709163e-15  -6.2245094819711186e-16  2.4712729973333403e-16  -7.8904317979704859e-17  2.1381904980726804e-17  -5.0669175020359340e-18  1.0363490890204856e-18  0.0000000000000000e+00  0.0000000000000000e+00  -3.4587109372904567e-11  -6.8813167178755372e-10  1.8631892810157068e-09  3.4966961531009102e-10  -1.1321505540405733e-08  1.2891946083728019e-08  4.9414737176234815e-08  -9.0121628182843224e-08  -2.4899129887480774e-07  2.7071293814661863e-07  1.4384475159846410e-06  1.9388018196130561e-06  1.1106938804334797e-06  5.1244953589992370e-08  -2.2057247276729397e-07  -3.1192703040796066e-08  4.1649415908594403e-08  1.2534615766045877e-09  -7.4112697329359515e-09  1.5434104470896135e-09  7.5994677388560662e-10  -4.9633456338087806e-10  6.6595446919808016e-11  4.7769437708282510e-11  -3.0485782113731180e-11  7.1655864321190842e-12  8.0636725205787163e-13  -1.3855534671488749e-12  6.1653864483453056e-13  -1.5239501269779844e-13  6.4353496855323912e-15  1.5086405787282413e-14  -9.4944442180742159e-15  3.8456749658971028e-15  -1.2386501587387192e-15  3.3689560218416234e-16  -7.8904317979705241e-17  1.6023469176264769e-17  -2.5471302342733826e-18  0.0000000000000000e+00  0.0000000000000000e+00  -7.2693875204375266e-10  1.4450655134478531e-09  1.0279231313098076e-09  -1.1321505540405733e-08  1.6838280358302879e-08  3.7249840013276038e-08  -1.4228756191136466e-07  -7.9098302019313696e-08  7.6761266271919889e-07  5.2851137241571251e-07  -3.1262912281808432e-06  -7.2257571255903309e-06  -6.4401456133292677e-06  -1.9237546756154903e-06  7.8268568444720755e-07  4.9036784381528025e-07  -1.4166207682210950e-07  -7.5512836811396309e-08  3.7065989314243138e-08  3.9904080839467833e-09  -7.1463652080177547e-09  1.7580986373206831e-09  4.3721565345760108e-10  -4.4147235237678272e-10  1.3056503535314634e-10  1.7135336469871246e-12  -1.8918856603265632e-11  9.4579871317366035e-12  -2.5356609275334315e-12  1.7959196011677006e-13  2.1380218938802506e-13  -1.4456705832961059e-13  5.9873223503879913e-14  -1.9458017016974189e-14  5.3039516975635347e-15  -1.2386501587387174e-15  2.4712729973333462e-16  -4.0986683776753664e-17  4.2343616685178739e-18  0.0000000000000000e+00  0.0000000000000000e+00  3.9165336690721569e-10  2.7007973446550716e-09  -1.1053454383497509e-08  1.2891946083728017e-08  3.7249840013276045e-08  -1.5370091428549207e-07  4.1622986921337255e-08  8.1019434858503425e-07  -8.7036901539175899e-07  -3.9578190411045886e-06  2.8789128280576732e-06  2.1170678225178481e-05  2.9646434185445149e-05  1.6515501557229465e-05  8.0676749854042533e-08  -3.3151972643348460e-06  -1.5627336242419423e-07  6.0694048451847031e-07  -6.8000777452441100e-08  -8.5570874544330780e-08  3.5474577050466917e-08  1.4688049967276535e-09  -5.9549316867112119e-09  2.2551334204224393e-09  -1.4934769090712165e-10  -2.4582293107140911e-10  1.4319978710689696e-10  -4.1904528903681644e-11  4.1130134062947592e-12  2.9676811349602958e-12  -2.1942660033427425e-12  9.3214719295703391e-13  -3.0596669399545077e-13  8.3591093522278488e-14  -1.9458017016974185e-14  3.8456749658970973e-15  -6.2245094819711354e-16  7.2247668879352152e-17  2.9900721969284488e-19  0.0000000000000000e+00  0.0000000000000000e+00  3.5767462690998242e-09  -7.7810053213319742e-09  6.8586760249490297e-10  4.9414737176234848e-08  -1.4228756191136466e-07  4.1622986921337136e-08  7.7079803081576086e-07  -1.5384363060796797e-06  -2.4432096339567210e-06  1.0084281690061243e-05  1.1211543099952331e-05  -4.2686625604298730e-05  -1.0957283486501687e-04  -9.8233423414274270e-05  -2.6317558776962271e-05  1.3394544702140571e-05  6.1112851178979510e-06  -2.6975001392008918e-06  -6.6544518601867880e-07  5.9547689394872284e-07  -6.3305105684712563e-08  -7.1177885405681080e-08  3.6860415790511025e-08  -5.1048394799331660e-09  -2.9375587128125082e-09  2.1292329131934483e-09  -6.8718328394512443e-10  8.5918481766579572e-11  3.9965982164635043e-11  -3.3168298442589384e-11  1.4511312688711369e-11  -4.8168789294953895e-12  1.3192853143232251e-12  -3.0596669399545127e-13  5.9873223503880027e-14  -9.4944442180742317e-15  1.0496729828709222e-15  -1.0231268154234228e-17  -3.6114237153814904e-17  0.0000000000000000e+00  0.0000000000000000e+00  4.9209817135349424e-10  -1.5199350997311804e-08  5.5216960787274486e-08  -9.0121628182843303e-08  -7.9098302019313881e-08  8.1019434858503467e-07  -1.5384363060796795e-06  -1.6597651951397744e-06  1.1819930182491125e-05  -4.7682957433184065e-06  -6.0886387048908406e-05  2.3234698860431895e-05  3.1070047310932056e-04  4.5597101862081746e-04  2.4504387436992658e-04  -1.0929144077638151e-05  -4.8638193775948098e-05  2.8686322409690523e-06  8.0112039366878529e-06  -2.2003604626479049e-06  -6.5207663348498175e-07  5.6253207778950058e-07  -1.2129542547296515e-07  -2.9627460050723316e-08  3.0842534769926477e-08  -1.1163327194921150e-08  1.7013176212309128e-09  5.1350588961666404e-10  -4.9867343268288274e-10  2.2586864693013510e-10  -7.5937241168536371e-11  2.0856269217771104e-11  -4.8168789294953685e-12  9.3214719295703088e-13  -1.4456705832961001e-13  1.5086405787282318e-14  1.0468770885601468e-16  -5.4790805726465283e-16  1.6330490268917542e-16  0.0000000000000000e+00  0.0000000000000000e+00  -1.4846424311349422e-08  2.2663317359691162e-08  2.0969651967370812e-08  -2.4899129887480774e-07  7.6761266271919963e-07  -8.7036901539175878e-07  -2.4432096339567248e-06  1.1819930182491130e-05  -1.0559133156798522e-05  -5.1952044793428989e-05  1.1983137295375685e-04  2.1751636745356091e-04  -5.6531241319817955e-04  -1.6689911251602575e-03  -1.5058340040319609e-03  -3.4693869011190667e-04  2.2622823140342155e-04  6.6720566662551096e-05  -4.6361508816195779e-05  -1.3631461961522942e-06  7.7379369564545482e-06  -2.4604672589547137e-06  -1.7352452316824251e-07  4.2915259425001362e-07  -1.7912737842511444e-07  3.2518579340047124e-08  6.0812064406640116e-09  -7.4431725509986010e-09  3.5144988237546009e-09  -1.1990612359393866e-09  3.3035290060932998e-10  -7.5937241168536669e-11  1.4511312688711395e-11  -2.1942660033427522e-12  2.1380218938802703e-13  6.4353496855319747e-15  -9.1062057233505685e-15  2.5662494000235427e-15  -4.3576609352330572e-16  0.0000000000000000e+00  0.0000000000000000e+00  -2.9624057916333715e-08  9.7134699899188878e-08  -2.2460841967382456e-07  2.7071293814661885e-07  5.2851137241571177e-07  -3.9578190411045912e-06  1.0084281690061246e-05  -4.7682957433183964e-06  -5.1952044793428996e-05  1.4413796245996597e-04  6.4943934635096345e-05  -8.9313292087260326e-04  5.6041026220127816e-06  4.5375923464285248e-03  7.0687807734868087e-03  3.6207750984477401e-03  -3.8211206717437375e-04  -6.8394829924361392e-04  1.2648488188409250e-04  8.7005900615585172e-05  -4.4465258460636027e-05  2.3169063818972759e-06  5.5796008921039286e-06  -2.8247430738683304e-06  6.0569331110992260e-07  6.0626207126610540e-08  -1.0998044703983676e-07  5.4653954728728093e-08  -1.8969372515399903e-08  5.2447326519753288e-09  -1.1990612359393852e-09  2.2586864693013557e-10  -3.3168298442589352e-11  2.9676811349602950e-12  1.7959196011677077e-13  -1.5239501269779836e-13  3.9816962802618821e-14  -6.8119788694963519e-15  5.8466894432571896e-16  0.0000000000000000e+00  0.0000000000000000e+00  -2.6112239398020854e-08  1.2680847934383854e-07  -4.7800007861165592e-07  1.4384475159846389e-06  -3.1262912281808419e-06  2.8789128280576745e-06  1.1211543099952331e-05  -6.0886387048908439e-05  1.1983137295375682e-04  6.4943934635096440e-05  -8.9676946339102787e-04  1.1346502222110504e-03  3.9661089146725012e-03  -7.0857117247196139e-03  -2.5574844312386453e-02  -2.3237305663183119e-02  -4.2626612208951026e-03  3.7520825457980017e-03  5.0325471061233305e-04  -7.0496032286626240e-04  1.1946012731860376e-04  6.3465282840880264e-05  -4.3372987286657522e-05  1.1046027846021549e-05  3.3029173106157925e-07  -1.6014317195606426e-06  8.4909925867625195e-07  -3.0078505161933358e-07  8.3499293033321313e-08  -1.8969372515399903e-08  3.5144988237545996e-09  -4.9867343268288460e-10  3.9965982164635198e-11  4.1130134062947197e-12  -2.5356609275334222e-12  6.1653864483452783e-13  -9.8256141593766828e-14  8.4570966803208533e-15  9.1328791219806534e-16  0.0000000000000000e+00  0.0000000000000000e+00  -9.0001429976792857e-09  7.4268155038957236e-08  -4.2371565648857316e-07  1.9388018196130535e-06  -7.2257571255903215e-06  2.1170678225178468e-05  -4.2686625604298696e-05  2.3234698860431912e-05  2.1751636745356102e-04  -8.9313292087260326e-04  1.1346502222110493e-03  3.0168784892116106e-03  -1.2046295763598587e-02  -5.9274530683425626e-03  6.5667589888701167e-02  1.1083950216932011e-01  5.3059441302742420e-02  -9.7296313612071188e-03  -8.8328365274979274e-03  3.0934820102977616e-03  4.9876562767848392e-04  -6.3652304912213209e-04  1.9743316010148817e-04  -6.0725737176318183e-06  -2.2799479333072660e-05  1.3170071878408223e-05  -4.7827175904132602e-06  1.3339536941488076e-06  -3.0078505161933400e-07  5.4653954728728186e-08  -7.4431725509986184e-09  5.1350588961666849e-10  8.5918481766579029e-11  -4.1904528903681606e-11  9.4579871317365954e-12  -1.3855534671488724e-12  9.3901116000560240e-14  1.7770193543164023e-14  -7.7812946485185427e-15  0.0000000000000000e+00  0.0000000000000000e+00  2.4357640005969782e-09  6.0069458935099117e-09  -1.3750550641895991e-07  1.1106938804334776e-06  -6.4401456133292584e-06  2.9646434185445112e-05  -1.0957283486501677e-04  3.1070047310932018e-04  -5.6531241319817945e-04  5.6041026220120573e-06  3.9661089146725038e-03  -1.2046295763598589e-02  3.6020654597077968e-03  6.8070808049620415e-02  -7.8858294872919191e-02  -3.9526448101233280e-01  -3.6198139614430197e-01  -4.4306314149228455e-02  6.0245803174823018e-02  -2.1846442760009438e-03  -8.5483993799085750e-03  3.4453355641458545e-03  -3.0278871241486513e-04  -3.1266161979693995e-04  2.0370959228559215e-04  -7.6316475039724170e-05  2.1403968945367732e-05  -4.7827175904132399e-06  8.4909925867624920e-07  -1.0998044703983631e-07  6.0812064406639537e-09  1.7013176212309223e-09  -6.8718328394512288e-10  1.4319978710689657e-10  -1.8918856603265528e-11  8.0636725205785578e-13  3.6969782619386950e-13  -1.2776213342251715e-13  2.1692216038052995e-14  0.0000000000000000e+00  0.0000000000000000e+00  2.4676834867802970e-09  -1.4397127474786118e-08  4.5180387537964713e-08  5.1244953589991960e-08  -1.9237546756154873e-06  1.6515501557229444e-05  -9.8233423414274148e-05  4.5597101862081702e-04  -1.6689911251602560e-03  4.5375923464285248e-03  -7.0857117247196105e-03  -5.9274530683425765e-03  6.8070808049620443e-02  -1.3374907293750576e-01  -1.9606227674359045e-01  9.3240092671368224e-01  1.7690223181769722e+00  7.6345100684520073e-01  -2.2033100774854231e-01  -9.1589525448478468e-02  5.7897539950591957e-02  -8.6445647656800649e-03  -3.9959116503392594e-03  3.1354203786132947e-03  -1.2233046711676112e-03  3.4539964690703351e-04  -7.6316475039724522e-05  1.3170071878408252e-05  -1.6014317195606522e-06  6.0626207126612420e-08  3.2518579340046740e-08  -1.1163327194921126e-08  2.1292329131934375e-09  -2.4582293107140808e-10  1.7135336469870265e-12  7.1655864321190802e-12  -2.0069026765922700e-12  3.2036731954007183e-13  -1.9638588110457516e-14  0.0000000000000000e+00  0.0000000000000000e+00  -2.3422856114980372e-10  -3.2724986648166581e-09  3.6803613439258835e-08  -2.2057247276729373e-07  7.8268568444720819e-07  8.0676749854035294e-08  -2.6317558776962213e-05  2.4504387436992620e-04  -1.5058340040319594e-03  7.0687807734868017e-03  -2.5574844312386449e-02  6.5667589888701153e-02  -7.8858294872919163e-02  -1.9606227674359059e-01  1.0632457101841277e+00  -5.9771776539361066e-01  -6.1900138377914251e+00  -5.7206931048651803e+00  -2.2051990041992278e-01  8.9649231894323256e-01  -2.0963588809333814e-01  -4.3282473864838515e-02  4.7810580446297317e-02  -1.9729044190480782e-02  5.6171104631325625e-03  -1.2233046711676097e-03  2.0370959228559264e-04  -2.2799479333072630e-05  3.3029173106157623e-07  6.0569331110992313e-07  -1.7912737842511436e-07  3.0842534769926569e-08  -2.9375587128125090e-09  -1.4934769090712119e-10  1.3056503535314634e-10  -3.0485782113731154e-11  4.1390680132369461e-12  -1.5900087467045693e-13  -8.6440677167282341e-14  0.0000000000000000e+00  0.0000000000000000e+00  -4.7297901409801073e-10  2.6729391606071370e-09  -6.5398323251145265e-09  -3.1192703040795868e-08  4.9036784381527898e-07  -3.3151972643348426e-06  1.3394544702140566e-05  -1.0929144077638207e-05  -3.4693869011190597e-04  3.6207750984477332e-03  -2.3237305663183085e-02  1.1083950216932001e-01  -3.9526448101233241e-01  9.3240092671368136e-01  -5.9771776539360899e-01  -4.8333813916431874e+00  1.2611011135713184e+01  2.9130709854447385e+01  1.0462501174209141e+01  -4.6692995153977659e+00  -2.3088849970532310e-01  7.1474884181575471e-01  -3.2095940021872310e-01  9.2371637460990322e-02  -1.9729044190480785e-02  3.1354203786132934e-03  -3.1266161979694125e-04  -6.0725737176316523e-06  1.1046027846021511e-05  -2.8247430738683224e-06  4.2915259425001145e-07  -2.9627460050723068e-08  -5.1048394799332131e-09  2.2551334204224479e-09  -4.4147235237678391e-10  4.7769437708282581e-11  9.0949920746631866e-13  -1.7067618093274248e-12  3.9374216868163223e-13  0.0000000000000000e+00  0.0000000000000000e+00  7.9242161564106872e-11  4.5221738808903507e-10  -6.5860592643039050e-09  4.1649415908594344e-08  -1.4166207682210940e-07  -1.5627336242419294e-07  6.1112851178979425e-06  -4.8638193775948051e-05  2.2622823140342141e-04  -3.8211206717437364e-04  -4.2626612208950974e-03  5.3059441302742379e-02  -3.6198139614430169e-01  1.7690223181769715e+00  -6.1900138377914224e+00  1.2611011135713177e+01  5.2112592682522507e+00  -9.9200687061638092e+01  -9.2697498650543309e+01  8.0930958842613911e+00  1.0152068083277092e+01  -5.2916997767003391e+00  1.5455982221554649e+00  -3.2095940021872377e-01  4.7810580446297435e-02  -3.9959116503392820e-03  -3.0278871241486209e-04  1.9743316010148744e-04  -4.3372987286657475e-05  5.5796008921039260e-06  -1.7352452316824258e-07  -1.2129542547296539e-07  3.6860415790510992e-08  -5.9549316867112111e-09  4.3721565345759973e-10  6.6595446919808249e-11  -3.0594401415492765e-11  5.9005247422389144e-12  -5.2710802655800825e-13  0.0000000000000000e+00  0.0000000000000000e+00  7.2797950364578126e-11  -5.3543726339726847e-10  1.9436443483571517e-09  1.2534615766045757e-09  -7.5512836811396216e-08  6.0694048451846999e-07  -2.6975001392008927e-06  2.8686322409690650e-06  6.6720566662550987e-05  -6.8394829924361348e-04  3.7520825457980017e-03  -9.7296313612071292e-03  -4.4306314149228331e-02  7.6345100684519951e-01  -5.7206931048651750e+00  2.9130709854447375e+01  -9.9200687061638078e+01  1.4092444596623361e+02  5.1440534473627326e+02  1.1743053479576450e+02  -8.9301578557596429e+01  2.6667781666990511e+01  -5.2916997767003187e+00  7.1474884181575216e-01  -4.3282473864838154e-02  -8.6445647656800805e-03  3.4453355641458627e-03  -6.3652304912213047e-04  6.3465282840880006e-05  2.3169063818973331e-06  -2.4604672589547201e-06  5.6253207778950322e-07  -7.1177885405681186e-08  1.4688049967276736e-09  1.7580986373206802e-09  -4.9633456338087682e-10  7.4593774649130391e-11  -4.0909691985516490e-12  -1.2090473935365921e-12  0.0000000000000000e+00  0.0000000000000000e+00  -2.8308284261565966e-11  2.4444828280666625e-11  7.7932251078848724e-10  -7.4112697329359457e-09  3.7065989314243144e-08  -6.8000777452441285e-08  -6.6544518601867721e-07  8.0112039366878462e-06  -4.6361508816195786e-05  1.2648488188409261e-04  5.0325471061233218e-04  -8.8328365274979222e-03  6.0245803174822997e-02  -2.2033100774854231e-01  -2.2051990041992139e-01  1.0462501174209132e+01  -9.2697498650543267e+01  5.1440534473627315e+02  -1.6731659044703963e+03  -1.5866768530361833e+03  4.9289821694451052e+02  -8.9301578557596841e+01  1.0152068083277126e+01  -2.3088849970533176e-01  -2.0963588809333641e-01  5.7897539950591596e-02  -8.5483993799085490e-03  4.9876562767847601e-04  1.1946012731860485e-04  -4.4465258460636155e-05  7.7379369564545550e-06  -6.5207663348498398e-07  -6.3305105684712550e-08  3.5474577050466950e-08  -7.146365208017761