<?xml version="1.0"?>
<VTKFile type="UnstructuredGrid"  version="0.1"  >
<UnstructuredGrid>
<Piece  NumberOfPoints="1681" NumberOfCells="3200">
<Points>
<DataArray  type="Float64"  NumberOfComponents="3"  format="ascii">-2 -2 0  -1.9 -2 0  -1.8 -2 0  -1.7 -2 0  -1.6 -2 0  -1.5 -2 0  -1.4 -2 0  -1.3 -2 0  -1.2 -2 0  -1.1 -2 0  -1 -2 0  -0.8999999999999999 -2 0  -0.8 -2 0  -0.7 -2 0  -0.6000000000000001 -2 0  -0.5 -2 0  -0.3999999999999999 -2 0  -0.3 -2 0  -0.2 -2 0  -0.1000000000000001 -2 0  0 -2 0  0.1000000000000001 -2 0  0.2000000000000002 -2 0  0.2999999999999998 -2 0  0.3999999999999999 -2 0  0.5 -2 0  0.6000000000000001 -2 0  0.7000000000000002 -2 0  0.7999999999999998 -2 0  0.8999999999999999 -2 0  1 -2 0  1.1 -2 0  1.2 -2 0  1.3 -2 0  1.4 -2 0  1.5 -2 0  1.6 -2 0  1.7 -2 0  1.8 -2 0  1.9 -2 0  2 -2 0  -2 -1.9 0  -1.9 -1.9 0  -1.8 -1.9 0  -1.7 -1.9 0  -1.6 -1.9 0  -1.5 -1.9 0  -1.4 -1.9 0  -1.3 -1.9 0  -1.2 -1.9 0  -1.1 -1.9 0  -1 -1.9 0  -0.8999999999999999 -1.9 0  -0.8 -1.9 0  -0.7 -1.9 0  -0.6000000000000001 -1.9 0  -0.5 -1.9 0  -0.3999999999999999 -1.9 0  -0.3 -1.9 0  -0.2 -1.9 0  -0.1000000000000001 -1.9 0  0 -1.9 0  0.1000000000000001 -1.9 0  0.2000000000000002 -1.9 0  0.2999999999999998 -1.9 0  0.3999999999999999 -1.9 0  0.5 -1.9 0  0.6000000000000001 -1.9 0  0.7000000000000002 -1.9 0  0.7999999999999998 -1.9 0  0.8999999999999999 -1.9 0  1 -1.9 0  1.1 -1.9 0  1.2 -1.9 0  1.3 -1.9 0  1.4 -1.9 0  1.5 -1.9 0  1.6 -1.9 0  1.7 -1.9 0  1.8 -1.9 0  1.9 -1.9 0  2 -1.9 0  -2 -1.8 0  -1.9 -1.8 0  -1.8 -1.8 0  -1.7 -1.8 0  -1.6 -1.8 0  -1.5 -1.8 0  -1.4 -1.8 0  -1.3 -1.8 0  -1.2 -1.8 0  -1.1 -1.8 0  -1 -1.8 0  -0.8999999999999999 -1.8 0  -0.8 -1.8 0  -0.7 -1.8 0  -0.6000000000000001 -1.8 0  -0.5 -1.8 0  -0.3999999999999999 -1.8 0  -0.3 -1.8 0  -0.2 -1.8 0  -0.1000000000000001 -1.8 0  0 -1.8 0  0.1000000000000001 -1.8 0  0.2000000000000002 -1.8 0  0.2999999999999998 -1.8 0  0.3999999999999999 -1.8 0  0.5 -1.8 0  0.6000000000000001 -1.8 0  0.7000000000000002 -1.8 0  0.7999999999999998 -1.8 0  0.8999999999999999 -1.8 0  1 -1.8 0  1.1 -1.8 0  1.2 -1.8 0  1.3 -1.8 0  1.4 -1.8 0  1.5 -1.8 0  1.6 -1.8 0  1.7 -1.8 0  1.8 -1.8 0  1.9 -1.8 0  2 -1.8 0  -2 -1.7 0  -1.9 -1.7 0  -1.8 -1.7 0  -1.7 -1.7 0  -1.6 -1.7 0  -1.5 -1.7 0  -1.4 -1.7 0  -1.3 -1.7 0  -1.2 -1.7 0  -1.1 -1.7 0  -1 -1.7 0  -0.8999999999999999 -1.7 0  -0.8 -1.7 0  -0.7 -1.7 0  -0.6000000000000001 -1.7 0  -0.5 -1.7 0  -0.3999999999999999 -1.7 0  -0.3 -1.7 0  -0.2 -1.7 0  -0.1000000000000001 -1.7 0  0 -1.7 0  0.1000000000000001 -1.7 0  0.2000000000000002 -1.7 0  0.2999999999999998 -1.7 0  0.3999999999999999 -1.7 0  0.5 -1.7 0  0.6000000000000001 -1.7 0  0.7000000000000002 -1.7 0  0.7999999999999998 -1.7 0  0.8999999999999999 -1.7 0  1 -1.7 0  1.1 -1.7 0  1.2 -1.7 0  1.3 -1.7 0  1.4 -1.7 0  1.5 -1.7 0  1.6 -1.7 0  1.7 -1.7 0  1.8 -1.7 0  1.9 -1.7 0  2 -1.7 0  -2 -1.6 0  -1.9 -1.6 0  -1.8 -1.6 0  -1.7 -1.6 0  -1.6 -1.6 0  -1.5 -1.6 0  -1.4 -1.6 0  -1.3 -1.6 0  -1.2 -1.6 0  -1.1 -1.6 0  -1 -1.6 0  -0.8999999999999999 -1.6 0  -0.8 -1.6 0  -0.7 -1.6 0  -0.6000000000000001 -1.6 0  -0.5 -1.6 0  -0.3999999999999999 -1.6 0  -0.3 -1.6 0  -0.2 -1.6 0  -0.1000000000000001 -1.6 0  0 -1.6 0  0.1000000000000001 -1.6 0  0.2000000000000002 -1.6 0  0.2999999999999998 -1.6 0  0.3999999999999999 -1.6 0  0.5 -1.6 0  0.6000000000000001 -1.6 0  0.7000000000000002 -1.6 0  0.7999999999999998 -1.6 0  0.8999999999999999 -1.6 0  1 -1.6 0  1.1 -1.6 0  1.2 -1.6 0  1.3 -1.6 0  1.4 -1.6 0  1.5 -1.6 0  1.6 -1.6 0  1.7 -1.6 0  1.8 -1.6 0  1.9 -1.6 0  2 -1.6 0  -2 -1.5 0  -1.9 -1.5 0  -1.8 -1.5 0  -1.7 -1.5 0  -1.6 -1.5 0  -1.5 -1.5 0  -1.4 -1.5 0  -1.3 -1.5 0  -1.2 -1.5 0  -1.1 -1.5 0  -1 -1.5 0  -0.8999999999999999 -1.5 0  -0.8 -1.5 0  -0.7 -1.5 0  -0.6000000000000001 -1.5 0  -0.5 -1.5 0  -0.3999999999999999 -1.5 0  -0.3 -1.5 0  -0.2 -1.5 0  -0.1000000000000001 -1.5 0  0 -1.5 0  0.1000000000000001 -1.5 0  0.2000000000000002 -1.5 0  0.2999999999999998 -1.5 0  0.3999999999999999 -1.5 0  0.5 -1.5 0  0.6000000000000001 -1.5 0  0.7000000000000002 -1.5 0  0.7999999999999998 -1.5 0  0.8999999999999999 -1.5 0  1 -1.5 0  1.1 -1.5 0  1.2 -1.5 0  1.3 -1.5 0  1.4 -1.5 0  1.5 -1.5 0  1.6 -1.5 0  1.7 -1.5 0  1.8 -1.5 0  1.9 -1.5 0  2 -1.5 0  -2 -1.4 0  -1.9 -1.4 0  -1.8 -1.4 0  -1.7 -1.4 0  -1.6 -1.4 0  -1.5 -1.4 0  -1.4 -1.4 0  -1.3 -1.4 0  -1.2 -1.4 0  -1.1 -1.4 0  -1 -1.4 0  -0.8999999999999999 -1.4 0  -0.8 -1.4 0  -0.7 -1.4 0  -0.6000000000000001 -1.4 0  -0.5 -1.4 0  -0.3999999999999999 -1.4 0  -0.3 -1.4 0  -0.2 -1.4 0  -0.1000000000000001 -1.4 0  0 -1.4 0  0.1000000000000001 -1.4 0  0.2000000000000002 -1.4 0  0.2999999999999998 -1.4 0  0.3999999999999999 -1.4 0  0.5 -1.4 0  0.6000000000000001 -1.4 0  0.7000000000000002 -1.4 0  0.7999999999999998 -1.4 0  0.8999999999999999 -1.4 0  1 -1.4 0  1.1 -1.4 0  1.2 -1.4 0  1.3 -1.4 0  1.4 -1.4 0  1.5 -1.4 0  1.6 -1.4 0  1.7 -1.4 0  1.8 -1.4 0  1.9 -1.4 0  2 -1.4 0  -2 -1.3 0  -1.9 -1.3 0  -1.8 -1.3 0  -1.7 -1.3 0  -1.6 -1.3 0  -1.5 -1.3 0  -1.4 -1.3 0  -1.3 -1.3 0  -1.2 -1.3 0  -1.1 -1.3 0  -1 -1.3 0  -0.8999999999999999 -1.3 0  -0.8 -1.3 0  -0.7 -1.3 0  -0.6000000000000001 -1.3 0  -0.5 -1.3 0  -0.3999999999999999 -1.3 0  -0.3 -1.3 0  -0.2 -1.3 0  -0.1000000000000001 -1.3 0  0 -1.3 0  0.1000000000000001 -1.3 0  0.2000000000000002 -1.3 0  0.2999999999999998 -1.3 0  0.3999999999999999 -1.3 0  0.5 -1.3 0  0.6000000000000001 -1.3 0  0.7000000000000002 -1.3 0  0.7999999999999998 -1.3 0  0.8999999999999999 -1.3 0  1 -1.3 0  1.1 -1.3 0  1.2 -1.3 0  1.3 -1.3 0  1.4 -1.3 0  1.5 -1.3 0  1.6 -1.3 0  1.7 -1.3 0  1.8 -1.3 0  1.9 -1.3 0  2 -1.3 0  -2 -1.2 0  -1.9 -1.2 0  -1.8 -1.2 0  -1.7 -1.2 0  -1.6 -1.2 0  -1.5 -1.2 0  -1.4 -1.2 0  -1.3 -1.2 0  -1.2 -1.2 0  -1.1 -1.2 0  -1 -1.2 0  -0.8999999999999999 -1.2 0  -0.8 -1.2 0  -0.7 -1.2 0  -0.6000000000000001 -1.2 0  -0.5 -1.2 0  -0.3999999999999999 -1.2 0  -0.3 -1.2 0  -0.2 -1.2 0  -0.1000000000000001 -1.2 0  0 -1.2 0  0.1000000000000001 -1.2 0  0.2000000000000002 -1.2 0  0.2999999999999998 -1.2 0  0.3999999999999999 -1.2 0  0.5 -1.2 0  0.6000000000000001 -1.2 0  0.7000000000000002 -1.2 0  0.7999999999999998 -1.2 0  0.8999999999999999 -1.2 0  1 -1.2 0  1.1 -1.2 0  1.2 -1.2 0  1.3 -1.2 0  1.4 -1.2 0  1.5 -1.2 0  1.6 -1.2 0  1.7 -1.2 0  1.8 -1.2 0  1.9 -1.2 0  2 -1.2 0  -2 -1.1 0  -1.9 -1.1 0  -1.8 -1.1 0  -1.7 -1.1 0  -1.6 -1.1 0  -1.5 -1.1 0  -1.4 -1.1 0  -1.3 -1.1 0  -1.2 -1.1 0  -1.1 -1.1 0  -1 -1.1 0  -0.8999999999999999 -1.1 0  -0.8 -1.1 0  -0.7 -1.1 0  -0.6000000000000001 -1.1 0  -0.5 -1.1 0  -0.3999999999999999 -1.1 0  -0.3 -1.1 0  -0.2 -1.1 0  -0.1000000000000001 -1.1 0  0 -1.1 0  0.1000000000000001 -1.1 0  0.2000000000000002 -1.1 0  0.2999999999999998 -1.1 0  0.3999999999999999 -1.1 0  0.5 -1.1 0  0.6000000000000001 -1.1 0  0.7000000000000002 -1.1 0  0.7999999999999998 -1.1 0  0.8999999999999999 -1.1 0  1 -1.1 0  1.1 -1.1 0  1.2 -1.1 0  1.3 -1.1 0  1.4 -1.1 0  1.5 -1.1 0  1.6 -1.1 0  1.7 -1.1 0  1.8 -1.1 0  1.9 -1.1 0  2 -1.1 0  -2 -1 0  -1.9 -1 0  -1.8 -1 0  -1.7 -1 0  -1.6 -1 0  -1.5 -1 0  -1.4 -1 0  -1.3 -1 0  -1.2 -1 0  -1.1 -1 0  -1 -1 0  -0.8999999999999999 -1 0  -0.8 -1 0  -0.7 -1 0  -0.6000000000000001 -1 0  -0.5 -1 0  -0.3999999999999999 -1 0  -0.3 -1 0  -0.2 -1 0  -0.1000000000000001 -1 0  0 -1 0  0.1000000000000001 -1 0  0.2000000000000002 -1 0  0.2999999999999998 -1 0  0.3999999999999999 -1 0  0.5 -1 0  0.6000000000000001 -1 0  0.7000000000000002 -1 0  0.7999999999999998 -1 0  0.8999999999999999 -1 0  1 -1 0  1.1 -1 0  1.2 -1 0  1.3 -1 0  1.4 -1 0  1.5 -1 0  1.6 -1 0  1.7 -1 0  1.8 -1 0  1.9 -1 0  2 -1 0  -2 -0.8999999999999999 0  -1.9 -0.8999999999999999 0  -1.8 -0.8999999999999999 0  -1.7 -0.8999999999999999 0  -1.6 -0.8999999999999999 0  -1.5 -0.8999999999999999 0  -1.4 -0.8999999999999999 0  -1.3 -0.8999999999999999 0  -1.2 -0.8999999999999999 0  -1.1 -0.8999999999999999 0  -1 -0.8999999999999999 0  -0.8999999999999999 -0.8999999999999999 0  -0.8 -0.8999999999999999 0  -0.7 -0.8999999999999999 0  -0.6000000000000001 -0.8999999999999999 0  -0.5 -0.8999999999999999 0  -0.3999999999999999 -0.8999999999999999 0  -0.3 -0.8999999999999999 0  -0.2 -0.8999999999999999 0  -0.1000000000000001 -0.8999999999999999 0  0 -0.8999999999999999 0  0.1000000000000001 -0.8999999999999999 0  0.2000000000000002 -0.8999999999999999 0  0.2999999999999998 -0.8999999999999999 0  0.3999999999999999 -0.8999999999999999 0  0.5 -0.8999999999999999 0  0.6000000000000001 -0.8999999999999999 0  0.7000000000000002 -0.8999999999999999 0  0.7999999999999998 -0.8999999999999999 0  0.8999999999999999 -0.8999999999999999 0  1 -0.8999999999999999 0  1.1 -0.8999999999999999 0  1.2 -0.8999999999999999 0  1.3 -0.8999999999999999 0  1.4 -0.8999999999999999 0  1.5 -0.8999999999999999 0  1.6 -0.8999999999999999 0  1.7 -0.8999999999999999 0  1.8 -0.8999999999999999 0  1.9 -0.8999999999999999 0  2 -0.8999999999999999 0  -2 -0.8 0  -1.9 -0.8 0  -1.8 -0.8 0  -1.7 -0.8 0  -1.6 -0.8 0  -1.5 -0.8 0  -1.4 -0.8 0  -1.3 -0.8 0  -1.2 -0.8 0  -1.1 -0.8 0  -1 -0.8 0  -0.8999999999999999 -0.8 0  -0.8 -0.8 0  -0.7 -0.8 0  -0.6000000000000001 -0.8 0  -0.5 -0.8 0  -0.3999999999999999 -0.8 0  -0.3 -0.8 0  -0.2 -0.8 0  -0.1000000000000001 -0.8 0  0 -0.8 0  0.1000000000000001 -0.8 0  0.2000000000000002 -0.8 0  0.2999999999999998 -0.8 0  0.3999999999999999 -0.8 0  0.5 -0.8 0  0.6000000000000001 -0.8 0  0.7000000000000002 -0.8 0  0.7999999999999998 -0.8 0  0.8999999999999999 -0.8 0  1 -0.8 0  1.1 -0.8 0  1.2 -0.8 0  1.3 -0.8 0  1.4 -0.8 0  1.5 -0.8 0  1.6 -0.8 0  1.7 -0.8 0  1.8 -0.8 0  1.9 -0.8 0  2 -0.8 0  -2 -0.7 0  -1.9 -0.7 0  -1.8 -0.7 0  -1.7 -0.7 0  -1.6 -0.7 0  -1.5 -0.7 0  -1.4 -0.7 0  -1.3 -0.7 0  -1.2 -0.7 0  -1.1 -0.7 0  -1 -0.7 0  -0.8999999999999999 -0.7 0  -0.8 -0.7 0  -0.7 -0.7 0  -0.6000000000000001 -0.7 0  -0.5 -0.7 0  -0.3999999999999999 -0.7 0  -0.3 -0.7 0  -0.2 -0.7 0  -0.1000000000000001 -0.7 0  0 -0.7 0  0.1000000000000001 -0.7 0  0.2000000000000002 -0.7 0  0.2999999999999998 -0.7 0  0.3999999999999999 -0.7 0  0.5 -0.7 0  0.600000000000000
[...]
<PointData  Scalars="f_1726"> 
<DataArray  type="Float64"  Name="f_1726"  format="ascii">0.0000000000000000e+00  0.0000000000000000e+00  0.0000000000000000e+00  0.0000000000000000e+00  0.0000000000000000e+00  0.0000000000000000e+00  0.0000000000000000e+00  0.0000000000000000e+00  0.0000000000000000e+00  0.0000000000000000e+00  0.0000000000000000e+00  0.0000000000000000e+00  0.0000000000000000e+00  0.0000000000000000e+00  0.0000000000000000e+00  0.0000000000000000e+00  0.0000000000000000e+00  0.0000000000000000e+00  0.0000000000000000e+00  0.0000000000000000e+00  0.0000000000000000e+00  0.0000000000000000e+00  0.0000000000000000e+00  0.0000000000000000e+00  0.0000000000000000e+00  0.0000000000000000e+00  0.0000000000000000e+00  0.0000000000000000e+00  0.0000000000000000e+00  0.0000000000000000e+00  0.0000000000000000e+00  0.0000000000000000e+00  0.0000000000000000e+00  0.0000000000000000e+00  0.0000000000000000e+00  0.0000000000000000e+00  0.0000000000000000e+00  0.0000000000000000e+00  0.0000000000000000e+00  0.0000000000000000e+00  0.0000000000000000e+00  0.0000000000000000e+00  -2.0299293474232118e-11  -2.3655968868529841e-11  1.5545010022282785e-10  -3.7459066642914637e-11  -7.8730046112082233e-10  4.2417449269097956e-10  3.8737431166759252e-09  5.3295977980824520e-10  -1.6079204298104726e-08  -3.2083905820439419e-08  -2.8280481761580135e-08  -9.7474742023379914e-09  2.6380188364701165e-09  2.6725887725482501e-09  -2.5367784243507697e-10  -5.1225305412996308e-10  8.5822072580713193e-11  7.8842763203293434e-11  -3.0658876267101025e-11  -5.6012804055219140e-12  6.6750493736692667e-12  -1.3094412256494951e-12  -5.7087669518632077e-13  4.2643673912586245e-13  -9.3618320390906184e-14  -2.1269287724249126e-14  2.3493439635013054e-14  -8.4274181939978882e-15  9.8912321345929016e-16  6.3321721145904437e-16  -4.7195014078857394e-16  1.7686500386588393e-16  -3.9113000213963044e-17  3.2383542806160923e-19  4.5859639272275460e-18  -2.7586324189489855e-18  1.1224028343159054e-18  -3.7206569969590031e-19  1.1794239500164154e-19  0.0000000000000000e+00  0.0000000000000000e+00  -2.3655968868529844e-11  1.7012425566724877e-10  -1.5134228106796636e-10  -7.4527101628167989e-10  1.5650572237189213e-09  2.9250593517854586e-09  -8.4271048423891454e-09  -1.6461436421263450e-08  2.4545176822185020e-08  1.0520032644629382e-07  1.3733808244607888e-07  8.0435047030268382e-08  6.5057355363049394e-09  -1.5592599882516872e-08  -3.5442321661679252e-09  2.8948879500198171e-09  4.8976747651489090e-10  -5.7989755421453917e-10  2.6474616359742343e-11  9.0907706571869940e-11  -3.0636327206290821e-11  -4.4306647945176056e-12  6.3904776535285315e-12  -1.8484835974544618e-12  -1.7220358880954383e-13  3.4696917407803886e-13  -1.3837092365007625e-13  1.9245750114993543e-14  9.1593357727052362e-15  -7.3776148128322547e-15  2.7793391538273331e-15  -5.9340386645161651e-16  -1.1080826428681034e-17  7.8246788830147517e-17  -4.4390032786846624e-17  1.7353985649769340e-17  -5.4876514350055916e-18  1.4906937210276233e-18  -3.7206569969590065e-19  0.0000000000000000e+00  0.0000000000000000e+00  1.5545010022282785e-10  -1.5134228106796636e-10  -6.8136454633252623e-10  2.0179000995268885e-09  1.1132772231521671e-09  -1.1971283287125942e-08  7.4281894890585326e-10  5.9801927696509814e-08  2.2710877109025837e-08  -2.4325888788245301e-07  -5.1769104515162287e-07  -4.5889908991602102e-07  -1.4892334231176579e-07  4.8931962757869586e-08  3.9859619190994860e-08  -7.0828704491814201e-09  -7.1329358645107062e-09  2.1050357920998080e-09  8.4403393047986098e-10  -5.5552106569790464e-10  2.2629247288733224e-11  8.0787704621459494e-11  -3.3134822258977834e-11  9.8501991180704290e-13  4.4827575174252866e-12  -2.1735468060596743e-12  4.0039586308954736e-13  1.0169824035264982e-13  -1.0641488759161609e-13  4.3123183468757487e-14  -9.8623438974725458e-15  1.1338050313632638e-16  1.1368330841036270e-15  -6.7413646220250487e-16  2.6764763398373249e-16  -8.5456175991710902e-17  2.3157361749720865e-17  -5.4876514350055669e-18  1.1224028343159017e-18  0.0000000000000000e+00  0.0000000000000000e+00  -3.7459066642914864e-11  -7.4527101628167958e-10  2.0179000995268885e-09  3.7870460007751015e-10  -1.2261592200833594e-08  1.3962435030362724e-08  5.3517913655911965e-08  -9.7604920945308721e-08  -2.6966641119087036e-07  2.9319171723201495e-07  1.5578896976517886e-06  2.0997911616512322e-06  1.2029208812584022e-06  5.5500102970281343e-08  -2.3888781418245069e-07  -3.3782804147639546e-08  4.5107795200159735e-08  1.3575433617805360e-09  -8.0266680814948230e-09  1.6715682762489634e-09  8.2304931993969330e-10  -5.3754794268616533e-10  7.2125231900357514e-11  5.1735995954924210e-11  -3.3017183701227289e-11  7.7605843495724402e-12  8.7332434485441117e-13  -1.5006035660184595e-12  6.6773322788522634e-13  -1.6504920590926077e-13  6.9697120433448332e-15  1.6339112751370292e-14  -1.0282819962424916e-14  4.1650024372195824e-15  -1.3415020707049597e-15  3.6486989062484866e-16  -8.5456175991711308e-17  1.7353985649769362e-17  -2.7586324189489967e-18  0.0000000000000000e+00  0.0000000000000000e+00  -7.8730046112082285e-10  1.5650572237189230e-09  1.1132772231521646e-09  -1.2261592200833591e-08  1.8236455070393151e-08  4.0342898403308636e-08  -1.5410247808309525e-07  -8.5666267589393368e-08  8.3135174954138967e-07  5.7239656854260651e-07  -3.3858843246763939e-06  -7.8257513455300568e-06  -6.9749062033140922e-06  -2.0834945708111810e-06  8.4767636688168356e-07  5.3108577369026699e-07  -1.5342505553847189e-07  -8.1783081552619569e-08  4.0143781573013056e-08  4.3217535393717339e-09  -7.7397670818786503e-09  1.9040832036632927e-09  4.7352006562953637e-10  -4.7813022159178546e-10  1.4140656589126468e-10  1.8558177379128394e-12  -2.0489792965024479e-11  1.0243335644380211e-11  -2.7462107528048942e-12  1.9450446494427027e-13  2.3155535706494059e-13  -1.5657125358331814e-13  6.4844825428370594e-14  -2.1073722823127960e-14  5.7443678790190659e-15  -1.3415020707049575e-15  2.6764763398373308e-16  -4.4390032786846538e-17  4.5859639272275429e-18  0.0000000000000000e+00  0.0000000000000000e+00  4.2417449269098132e-10  2.9250593517854607e-09  -1.1971283287125947e-08  1.3962435030362739e-08  4.0342898403308643e-08  -1.6646354366368513e-07  4.5079171669228332e-08  8.7746922618329542e-07  -9.4264052540421675e-07  -4.2864584496753731e-06  3.1179647400611291e-06  2.2928595678883818e-05  3.2108140113823875e-05  1.7886874176252220e-05  8.7375782599624329e-08  -3.5904762644435556e-06  -1.6924959627143970e-07  6.5733807970871088e-07  -7.3647254730009409e-08  -9.2676293288610985e-08  3.8420225626130578e-08  1.5907679264162445e-09  -6.4494023048155779e-09  2.4423895091518019e-09  -1.6174884828733126e-10  -2.6623495644230584e-10  1.5509045033669908e-10  -4.5384091625553818e-11  4.4545394536582578e-12  3.2141039660424927e-12  -2.3764679368056411e-12  1.0095484836711284e-12  -3.3137278566177403e-13  9.0532120196726855e-14  -2.1073722823127960e-14  4.1650024372195769e-15  -6.7413646220250674e-16  7.8246788830147529e-17  3.2383542806156517e-19  0.0000000000000000e+00  0.0000000000000000e+00  3.8737431166759227e-09  -8.4271048423891537e-09  7.4281894890585243e-10  5.3517913655911952e-08  -1.5410247808309528e-07  4.5079171669228272e-08  8.3480161621064012e-07  -1.6661811050467253e-06  -2.6460827215787089e-06  1.0921634872726713e-05  1.2142498976223480e-05  -4.6231130102049629e-05  -1.1867126793420880e-04  -1.0639028299715716e-04  -2.8502849933951079e-05  1.4506767166904364e-05  6.6187386183977836e-06  -2.9214883612897856e-06  -7.2070074725030533e-07  6.4492260437975357e-07  -6.8561675597501912e-08  -7.7088175370963050e-08  3.9921138152816379e-08  -5.5287222825854570e-09  -3.1814803140768328e-09  2.3060347927220415e-09  -7.4424387859839293e-10  9.3052764243827109e-11  4.3284576725206578e-11  -3.5922444064272392e-11  1.5716266520626038e-11  -5.2168507892761813e-12  1.4288328052348615e-12  -3.3137278566177453e-13  6.4844825428370720e-14  -1.0282819962424932e-14  1.1368330841036339e-15  -1.1080826428681826e-17  -3.9113000213962902e-17  0.0000000000000000e+00  0.0000000000000000e+00  5.3295977980825006e-10  -1.6461436421263430e-08  5.9801927696509827e-08  -9.7604920945308734e-08  -8.5666267589393328e-08  8.7746922618329553e-07  -1.6661811050467257e-06  -1.7975845967930816e-06  1.2801403772915244e-05  -5.1642334748568887e-06  -6.5942117495892329e-05  2.5164003260787133e-05  3.3649963640224685e-04  4.9383279156411551e-04  2.6539121039273543e-04  -1.1836650815201750e-05  -5.2676889600711647e-05  3.1068304994766062e-06  8.6764181105421073e-06  -2.3830684524718499e-06  -7.0622213052405963e-07  6.0924219955778676e-07  -1.3136724949416936e-07  -3.2087590452695142e-08  3.3403559485898241e-08  -1.2090279440316671e-08  1.8425873485796249e-09  5.5614509825873836e-10  -5.4008102112611961e-10  2.4462375871540906e-10  -8.2242726529777040e-11  2.2588079568253518e-11  -5.2168507892761595e-12  1.0095484836711249e-12  -1.5657125358331758e-13  1.6339112751370198e-14  1.1338050313633819e-16  -5.9340386645161572e-16  1.7686500386588353e-16  0.0000000000000000e+00  0.0000000000000000e+00  -1.6079204298104719e-08  2.4545176822184957e-08  2.2710877109025777e-08  -2.6966641119087036e-07  8.3135174954138967e-07  -9.4264052540421707e-07  -2.6460827215787072e-06  1.2801403772915248e-05  -1.1435915859501892e-05  -5.6265907832045918e-05  1.2978162866953029e-04  2.3557794369340161e-04  -6.1225340145501603e-04  -1.8075766063523121e-03  -1.6308716551603265e-03  -3.7574691119138232e-04  2.4501320145846610e-04  7.2260741021146547e-05  -5.0211159009791171e-05  -1.4763356964923437e-06  8.3804602751097463e-06  -2.6647733417727364e-06  -1.8793321544908626e-07  4.6478748642072307e-07  -1.9400130648829220e-07  3.5218775223407339e-08  6.5861623437259342e-09  -8.0612199654068593e-09  3.8063269247531444e-09  -1.2986258626508935e-09  3.5778391267641853e-10  -8.2242726529777441e-11  1.5716266520626064e-11  -2.3764679368056529e-12  2.3155535706494291e-13  6.9697120433443543e-15  -9.8623438974725000e-15  2.7793391538273181e-15  -4.7195014078857246e-16  0.0000000000000000e+00  0.0000000000000000e+00  -3.2083905820439379e-08  1.0520032644629363e-07  -2.4325888788245254e-07  2.9319171723201474e-07  5.7239656854260704e-07  -4.2864584496753757e-06  1.0921634872726718e-05  -5.1642334748568989e-06  -5.6265907832045897e-05  1.5610652753165791e-04  7.0336585498381087e-05  -9.6729464273059688e-04  6.0694419799121848e-06  4.9143735103923548e-03  7.6557403864929872e-03  3.9214279010553049e-03  -4.1384092654357261e-04  -7.4074027538552562e-04  1.3698761491554828e-04  9.4230477440222974e-05  -4.8157452593486587e-05  2.5092918182076925e-06  6.0429057370698363e-06  -3.0592969742663198e-06  6.5598734665604798e-07  6.5660333408548565e-08  -1.1911272638210678e-07  5.9192172158974902e-08  -2.0544503490230933e-08  5.6802315514843884e-09  -1.2986258626508920e-09  2.4462375871540968e-10  -3.5922444064272346e-11  3.2141039660424927e-12  1.9450446494427088e-13  -1.6504920590926064e-13  4.3123183468757620e-14  -7.3776148128322500e-15  6.3321721145904506e-16  0.0000000000000000e+00  0.0000000000000000e+00  -2.8280481761580091e-08  1.3733808244607869e-07  -5.1769104515162203e-07  1.5578896976517854e-06  -3.3858843246763896e-06  3.1179647400611232e-06  1.2142498976223485e-05  -6.5942117495892342e-05  1.2978162866953032e-04  7.0336585498380897e-05  -9.7123314730693418e-04  1.2288664494032060e-03  4.2954366768840650e-03  -7.6740772074085440e-03  -2.7698463816416850e-02  -2.5166826520659123e-02  -4.6166133465540913e-03  4.0636385254811157e-03  5.4504270767294122e-04  -7.6349704250061416e-04  1.2937955647441984e-04  6.8735153140908834e-05  -4.6974484156978595e-05  1.1963240083537034e-05  3.5771766388583483e-07  -1.7344073729993154e-06  9.1960462420488276e-07  -3.2576088311756246e-07  9.0432697009994948e-08  -2.0544503490230943e-08  3.8063269247531419e-09  -5.4008102112612147e-10  4.3284576725206733e-11  4.4545394536582133e-12  -2.7462107528048845e-12  6.6773322788522351e-13  -1.0641488759161586e-13  9.1593357727051573e-15  9.8912321345930062e-16  0.0000000000000000e+00  0.0000000000000000e+00  -9.7474742023379782e-09  8.0435047030268289e-08  -4.5889908991602065e-07  2.0997911616512305e-06  -7.8257513455300466e-06  2.2928595678883804e-05  -4.6231130102049588e-05  2.5164003260787089e-05  2.3557794369340174e-04  -9.6729464273059720e-04  1.2288664494032070e-03  3.2673864462777107e-03  -1.3046565728976516e-02  -6.4196419861480411e-03  7.1120329814190197e-02  1.2004311356764195e-01  5.7465257543386640e-02  -1.0537535983159331e-02  -9.5662753588976555e-03  3.3503507775986745e-03  5.4018087157754443e-04  -6.8937704679929450e-04  2.1382711755486020e-04  -6.5768127983827347e-06  -2.4692645070547004e-05  1.4263655134237633e-05  -5.1798528469650140e-06  1.4447191810376482e-06  -3.2576088311756293e-07  5.9192172158975022e-08  -8.0612199654068791e-09  5.5614509825874353e-10  9.3052764243826372e-11  -4.5384091625553747e-11  1.0243335644380196e-11  -1.5006035660184567e-12  1.0169824035264977e-13  1.9245750114993543e-14  -8.4274181939978882e-15  0.0000000000000000e+00  0.0000000000000000e+00  2.6380188364701198e-09  6.5057355363049088e-09  -1.4892334231176550e-07  1.2029208812584007e-06  -6.9749062033140854e-06  3.2108140113823848e-05  -1.1867126793420869e-04  3.3649963640224653e-04  -6.1225340145501571e-04  6.0694419799113124e-06  4.2954366768840659e-03  -1.3046565728976519e-02  3.9011646984595839e-03  7.3723100351523921e-02  -8.5406331334107133e-02  -4.2808545739347542e-01  -3.9203869555769033e-01  -4.7985310264697642e-02  6.5248342431574888e-02  -2.3660472647040669e-03  -9.2582198358877738e-03  3.7314206606015991e-03  -3.2793091885140738e-04  -3.3862362784877154e-04  2.2062471630557464e-04  -8.2653450267945348e-05  2.3181257806282877e-05  -5.1798528469649937e-06  9.1960462420488011e-07  -1.1911272638210632e-07  6.5861623437258663e-09  1.8425873485796342e-09  -7.4424387859839097e-10  1.5509045033669861e-10  -2.0489792965024360e-11  8.7332434485439138e-13  4.0039586308955089e-13  -1.3837092365007625e-13  2.3493439635013044e-14  0.0000000000000000e+00  0.0000000000000000e+00  2.6725887725482484e-09  -1.5592599882516869e-08  4.8931962757869593e-08  5.5500102970281052e-08  -2.0834945708111785e-06  1.7886874176252207e-05  -1.0639028299715710e-04  4.9383279156411507e-04  -1.8075766063523106e-03  4.9143735103923539e-03  -7.6740772074085396e-03  -6.4196419861480523e-03  7.3723100351523949e-02  -1.4485499156859244e-01  -2.1234240223767356e-01  1.0098232863323562e+00  1.9159139376159300e+00  8.2684452856931501e-01  -2.3862629899967475e-01  -9.9194705766744398e-02  6.2705090040541353e-02  -9.3623703607413431e-03  -4.3277140970479130e-03  3.3957715185079273e-03  -1.3248823631891746e-03  3.7408007279340883e-04  -8.2653450267945714e-05  1.4263655134237655e-05  -1.7344073729993247e-06  6.5660333408550325e-08  3.5218775223406955e-08  -1.2090279440316648e-08  2.3060347927220299e-09  -2.6623495644230465e-10  1.8558177379127021e-12  7.7605843495724354e-12  -2.1735468060596779e-12  3.4696917407803775e-13  -2.1269287724249000e-14  0.0000000000000000e+00  0.0000000000000000e+00  -2.5367784243507765e-10  -3.5442321661679194e-09  3.9859619190994841e-08  -2.3888781418245058e-07  8.4767636688168430e-07  8.7375782599617870e-08  -2.8502849933951028e-05  2.6539121039273516e-04  -1.6308716551603258e-03  7.6557403864929803e-03  -2.7698463816416843e-02  7.1120329814190142e-02  -8.5406331334107077e-02  -2.1234240223767373e-01  1.1515328293604548e+00  -6.4734954766336972e-01  -6.7040046154316766e+00  -6.1957136096109329e+00  -2.3883087646491824e-01  9.7093299003655475e-01  -2.2704310493743557e-01  -4.6876454909623999e-02  5.1780554999987835e-02  -2.1367254868404274e-02  6.0835299333783371e-03  -1.3248823631891724e-03  2.2062471630557515e-04  -2.4692645070546963e-05  3.5771766388583187e-07  6.5598734665604861e-07  -1.9400130648829209e-07  3.3403559485898334e-08  -3.1814803140768287e-09  -1.6174884828733141e-10  1.4140656589126465e-10  -3.3017183701227244e-11  4.4827575174252938e-12  -1.7220358880954287e-13  -9.3618320390906209e-14  0.0000000000000000e+00  0.0000000000000000e+00  -5.1225305412996298e-10  2.8948879500198179e-09  -7.0828704491814325e-09  -3.3782804147639414e-08  5.3108577369026625e-07  -3.5904762644435552e-06  1.4506767166904362e-05  -1.1836650815201776e-05  -3.7574691119138194e-04  3.9214279010553006e-03  -2.5166826520659106e-02  1.2004311356764193e-01  -4.2808545739347537e-01  1.0098232863323557e+00  -6.4734954766336861e-01  -5.2347235413093669e+00  1.3658172513754279e+01  3.1549592364836442e+01  1.1331259993739103e+01  -5.0570170475141154e+00  -2.5006043738132550e-01  7.7409835583128817e-01  -3.4761041846074864e-01  1.0004176082656548e-01  -2.1367254868404274e-02  3.3957715185079242e-03  -3.3862362784877273e-04  -6.5768127983825687e-06  1.1963240083537002e-05  -3.0592969742663105e-06  4.6478748642072053e-07  -3.2087590452694831e-08  -5.5287222825855157e-09  2.4423895091518110e-09  -4.7813022159178659e-10  5.1735995954924269e-11  9.8501991180704048e-13  -1.8484835974544602e-12  4.2643673912586255e-13  0.0000000000000000e+00  0.0000000000000000e+00  8.5822072580713336e-11  4.8976747651488976e-10  -7.1329358645107021e-09  4.5107795200159709e-08  -1.5342505553847189e-07  -1.6924959627143888e-07  6.6187386183977810e-06  -5.2676889600711633e-05  2.4501320145846610e-04  -4.1384092654357267e-04  -4.6166133465540887e-03  5.7465257543386619e-02  -3.9203869555769011e-01  1.9159139376159298e+00  -6.7040046154316748e+00  1.3658172513754273e+01  5.6439786892365662e+00  -1.0743786384692474e+02  -1.0039468005679667e+02  8.7651099953886149e+00  1.0995049941721879e+01  -5.7310986140114029e+00  1.6739377142701586e+00  -3.4761041846074930e-01  5.1780554999987974e-02  -4.3277140970479347e-03  -3.2793091885140478e-04  2.1382711755485941e-04  -4.6974484156978548e-05  6.0429057370698253e-06  -1.8793321544908573e-07  -1.3136724949416968e-07  3.9921138152816352e-08  -6.4494023048155697e-09  4.7352006562953440e-10  7.2125231900357838e-11  -3.3134822258977989e-11  6.3904776535285347e-12  -5.7087669518632199e-13  0.0000000000000000e+00  0.0000000000000000e+00  7.8842763203293421e-11  -5.7989755421453917e-10  2.1050357920998084e-09  1.3575433617805310e-09  -8.1783081552619556e-08  6.5733807970871109e-07  -2.9214883612897885e-06  3.1068304994766193e-06  7.2260741021146465e-05  -7.4074027538552562e-04  4.0636385254811174e-03  -1.0537535983159345e-02  -4.7985310264697566e-02  8.2684452856931434e-01  -6.1957136096109320e+00  3.1549592364836439e+01  -1.0743786384692474e+02  1.5262617514953214e+02  5.5711924006702043e+02  1.2718143575981173e+02  -9.6716778104823646e+01  2.8882153750179189e+01  -5.7310986140113807e+00  7.7409835583128517e-01  -4.6876454909623583e-02  -9.3623703607413691e-03  3.7314206606016065e-03  -6.8937704679929233e-04  6.8735153140908495e-05  2.5092918182077637e-06  -2.6647733417727419e-06  6.0924219955778909e-07  -7.7088175370963050e-08  1.5907679264162517e-09  1.9040832036632898e-09  -5.3754794268616357e-10  8.0787704621459494e-11  -4.4306647945175660e-12  -1.3094412256494986e-12  0.0000000000000000e+00  0.0000000000000000e+00  -3.0658876267101006e-11  2.6474616359742130e-11  8.4403393047986253e-10  -8.0266680814948313e-09  4.0143781573013082e-08  -7.3647254730009488e-08  -7.2070074725030490e-07  8.6764181105421090e-06  -5.0211159009791192e-05  1.3698761491554837e-04  5.4504270767294154e-04  -9.5662753588976607e-03  6.5248342431574902e-02  -2.3862629899967480e-01  -2.3883087646491707e-01  1.1331259993739106e+01  -1.0039468005679669e+02  5.5711924006702054e+02  -1.8120980404713609e+03  -1.7184273290329927e+03  5.3382625756989239e+02  -9.6716778104824058e+01  1.0995049941721911e+01  -2.5006043738133404e-01  -2.2704310493743390e-01  6.2705090040541006e-02  -9.2582198358877460e-03  5.4018087157753597e-04  1.2937955647442093e-04  -4.8157452593486716e-05  8.3804602751097480e-06  -7.0622213052406101e-07  -6.8561675597501939e-08  3.8420225626130611e-08  -7.739767081878655