<?xml version="1.0"?>
<VTKFile type="UnstructuredGrid"  version="0.1"  >
<UnstructuredGrid>
<Piece  NumberOfPoints="1681" NumberOfCells="3200">
<Points>
<DataArray  type="Float64"  NumberOfComponents="3"  format="ascii">-2 -2 0  -1.9 -2 0  -1.8 -2 0  -1.7 -2 0  -1.6 -2 0  -1.5 -2 0  -1.4 -2 0  -1.3 -2 0  -1.2 -2 0  -1.1 -2 0  -1 -2 0  -0.8999999999999999 -2 0  -0.8 -2 0  -0.7 -2 0  -0.6000000000000001 -2 0  -0.5 -2 0  -0.3999999999999999 -2 0  -0.3 -2 0  -0.2 -2 0  -0.1000000000000001 -2 0  0 -2 0  0.1000000000000001 -2 0  0.2000000000000002 -2 0  0.2999999999999998 -2 0  0.3999999999999999 -2 0  0.5 -2 0  0.6000000000000001 -2 0  0.7000000000000002 -2 0  0.7999999999999998 -2 0  0.8999999999999999 -2 0  1 -2 0  1.1 -2 0  1.2 -2 0  1.3 -2 0  1.4 -2 0  1.5 -2 0  1.6 -2 0  1.7 -2 0  1.8 -2 0  1.9 -2 0  2 -2 0  -2 -1.9 0  -1.9 -1.9 0  -1.8 -1.9 0  -1.7 -1.9 0  -1.6 -1.9 0  -1.5 -1.9 0  -1.4 -1.9 0  -1.3 -1.9 0  -1.2 -1.9 0  -1.1 -1.9 0  -1 -1.9 0  -0.8999999999999999 -1.9 0  -0.8 -1.9 0  -0.7 -1.9 0  -0.6000000000000001 -1.9 0  -0.5 -1.9 0  -0.3999999999999999 -1.9 0  -0.3 -1.9 0  -0.2 -1.9 0  -0.1000000000000001 -1.9 0  0 -1.9 0  0.1000000000000001 -1.9 0  0.2000000000000002 -1.9 0  0.2999999999999998 -1.9 0  0.3999999999999999 -1.9 0  0.5 -1.9 0  0.6000000000000001 -1.9 0  0.7000000000000002 -1.9 0  0.7999999999999998 -1.9 0  0.8999999999999999 -1.9 0  1 -1.9 0  1.1 -1.9 0  1.2 -1.9 0  1.3 -1.9 0  1.4 -1.9 0  1.5 -1.9 0  1.6 -1.9 0  1.7 -1.9 0  1.8 -1.9 0  1.9 -1.9 0  2 -1.9 0  -2 -1.8 0  -1.9 -1.8 0  -1.8 -1.8 0  -1.7 -1.8 0  -1.6 -1.8 0  -1.5 -1.8 0  -1.4 -1.8 0  -1.3 -1.8 0  -1.2 -1.8 0  -1.1 -1.8 0  -1 -1.8 0  -0.8999999999999999 -1.8 0  -0.8 -1.8 0  -0.7 -1.8 0  -0.6000000000000001 -1.8 0  -0.5 -1.8 0  -0.3999999999999999 -1.8 0  -0.3 -1.8 0  -0.2 -1.8 0  -0.1000000000000001 -1.8 0  0 -1.8 0  0.1000000000000001 -1.8 0  0.2000000000000002 -1.8 0  0.2999999999999998 -1.8 0  0.3999999999999999 -1.8 0  0.5 -1.8 0  0.6000000000000001 -1.8 0  0.7000000000000002 -1.8 0  0.7999999999999998 -1.8 0  0.8999999999999999 -1.8 0  1 -1.8 0  1.1 -1.8 0  1.2 -1.8 0  1.3 -1.8 0  1.4 -1.8 0  1.5 -1.8 0  1.6 -1.8 0  1.7 -1.8 0  1.8 -1.8 0  1.9 -1.8 0  2 -1.8 0  -2 -1.7 0  -1.9 -1.7 0  -1.8 -1.7 0  -1.7 -1.7 0  -1.6 -1.7 0  -1.5 -1.7 0  -1.4 -1.7 0  -1.3 -1.7 0  -1.2 -1.7 0  -1.1 -1.7 0  -1 -1.7 0  -0.8999999999999999 -1.7 0  -0.8 -1.7 0  -0.7 -1.7 0  -0.6000000000000001 -1.7 0  -0.5 -1.7 0  -0.3999999999999999 -1.7 0  -0.3 -1.7 0  -0.2 -1.7 0  -0.1000000000000001 -1.7 0  0 -1.7 0  0.1000000000000001 -1.7 0  0.2000000000000002 -1.7 0  0.2999999999999998 -1.7 0  0.3999999999999999 -1.7 0  0.5 -1.7 0  0.6000000000000001 -1.7 0  0.7000000000000002 -1.7 0  0.7999999999999998 -1.7 0  0.8999999999999999 -1.7 0  1 -1.7 0  1.1 -1.7 0  1.2 -1.7 0  1.3 -1.7 0  1.4 -1.7 0  1.5 -1.7 0  1.6 -1.7 0  1.7 -1.7 0  1.8 -1.7 0  1.9 -1.7 0  2 -1.7 0  -2 -1.6 0  -1.9 -1.6 0  -1.8 -1.6 0  -1.7 -1.6 0  -1.6 -1.6 0  -1.5 -1.6 0  -1.4 -1.6 0  -1.3 -1.6 0  -1.2 -1.6 0  -1.1 -1.6 0  -1 -1.6 0  -0.8999999999999999 -1.6 0  -0.8 -1.6 0  -0.7 -1.6 0  -0.6000000000000001 -1.6 0  -0.5 -1.6 0  -0.3999999999999999 -1.6 0  -0.3 -1.6 0  -0.2 -1.6 0  -0.1000000000000001 -1.6 0  0 -1.6 0  0.1000000000000001 -1.6 0  0.2000000000000002 -1.6 0  0.2999999999999998 -1.6 0  0.3999999999999999 -1.6 0  0.5 -1.6 0  0.6000000000000001 -1.6 0  0.7000000000000002 -1.6 0  0.7999999999999998 -1.6 0  0.8999999999999999 -1.6 0  1 -1.6 0  1.1 -1.6 0  1.2 -1.6 0  1.3 -1.6 0  1.4 -1.6 0  1.5 -1.6 0  1.6 -1.6 0  1.7 -1.6 0  1.8 -1.6 0  1.9 -1.6 0  2 -1.6 0  -2 -1.5 0  -1.9 -1.5 0  -1.8 -1.5 0  -1.7 -1.5 0  -1.6 -1.5 0  -1.5 -1.5 0  -1.4 -1.5 0  -1.3 -1.5 0  -1.2 -1.5 0  -1.1 -1.5 0  -1 -1.5 0  -0.8999999999999999 -1.5 0  -0.8 -1.5 0  -0.7 -1.5 0  -0.6000000000000001 -1.5 0  -0.5 -1.5 0  -0.3999999999999999 -1.5 0  -0.3 -1.5 0  -0.2 -1.5 0  -0.1000000000000001 -1.5 0  0 -1.5 0  0.1000000000000001 -1.5 0  0.2000000000000002 -1.5 0  0.2999999999999998 -1.5 0  0.3999999999999999 -1.5 0  0.5 -1.5 0  0.6000000000000001 -1.5 0  0.7000000000000002 -1.5 0  0.7999999999999998 -1.5 0  0.8999999999999999 -1.5 0  1 -1.5 0  1.1 -1.5 0  1.2 -1.5 0  1.3 -1.5 0  1.4 -1.5 0  1.5 -1.5 0  1.6 -1.5 0  1.7 -1.5 0  1.8 -1.5 0  1.9 -1.5 0  2 -1.5 0  -2 -1.4 0  -1.9 -1.4 0  -1.8 -1.4 0  -1.7 -1.4 0  -1.6 -1.4 0  -1.5 -1.4 0  -1.4 -1.4 0  -1.3 -1.4 0  -1.2 -1.4 0  -1.1 -1.4 0  -1 -1.4 0  -0.8999999999999999 -1.4 0  -0.8 -1.4 0  -0.7 -1.4 0  -0.6000000000000001 -1.4 0  -0.5 -1.4 0  -0.3999999999999999 -1.4 0  -0.3 -1.4 0  -0.2 -1.4 0  -0.1000000000000001 -1.4 0  0 -1.4 0  0.1000000000000001 -1.4 0  0.2000000000000002 -1.4 0  0.2999999999999998 -1.4 0  0.3999999999999999 -1.4 0  0.5 -1.4 0  0.6000000000000001 -1.4 0  0.7000000000000002 -1.4 0  0.7999999999999998 -1.4 0  0.8999999999999999 -1.4 0  1 -1.4 0  1.1 -1.4 0  1.2 -1.4 0  1.3 -1.4 0  1.4 -1.4 0  1.5 -1.4 0  1.6 -1.4 0  1.7 -1.4 0  1.8 -1.4 0  1.9 -1.4 0  2 -1.4 0  -2 -1.3 0  -1.9 -1.3 0  -1.8 -1.3 0  -1.7 -1.3 0  -1.6 -1.3 0  -1.5 -1.3 0  -1.4 -1.3 0  -1.3 -1.3 0  -1.2 -1.3 0  -1.1 -1.3 0  -1 -1.3 0  -0.8999999999999999 -1.3 0  -0.8 -1.3 0  -0.7 -1.3 0  -0.6000000000000001 -1.3 0  -0.5 -1.3 0  -0.3999999999999999 -1.3 0  -0.3 -1.3 0  -0.2 -1.3 0  -0.1000000000000001 -1.3 0  0 -1.3 0  0.1000000000000001 -1.3 0  0.2000000000000002 -1.3 0  0.2999999999999998 -1.3 0  0.3999999999999999 -1.3 0  0.5 -1.3 0  0.6000000000000001 -1.3 0  0.7000000000000002 -1.3 0  0.7999999999999998 -1.3 0  0.8999999999999999 -1.3 0  1 -1.3 0  1.1 -1.3 0  1.2 -1.3 0  1.3 -1.3 0  1.4 -1.3 0  1.5 -1.3 0  1.6 -1.3 0  1.7 -1.3 0  1.8 -1.3 0  1.9 -1.3 0  2 -1.3 0  -2 -1.2 0  -1.9 -1.2 0  -1.8 -1.2 0  -1.7 -1.2 0  -1.6 -1.2 0  -1.5 -1.2 0  -1.4 -1.2 0  -1.3 -1.2 0  -1.2 -1.2 0  -1.1 -1.2 0  -1 -1.2 0  -0.8999999999999999 -1.2 0  -0.8 -1.2 0  -0.7 -1.2 0  -0.6000000000000001 -1.2 0  -0.5 -1.2 0  -0.3999999999999999 -1.2 0  -0.3 -1.2 0  -0.2 -1.2 0  -0.1000000000000001 -1.2 0  0 -1.2 0  0.1000000000000001 -1.2 0  0.2000000000000002 -1.2 0  0.2999999999999998 -1.2 0  0.3999999999999999 -1.2 0  0.5 -1.2 0  0.6000000000000001 -1.2 0  0.7000000000000002 -1.2 0  0.7999999999999998 -1.2 0  0.8999999999999999 -1.2 0  1 -1.2 0  1.1 -1.2 0  1.2 -1.2 0  1.3 -1.2 0  1.4 -1.2 0  1.5 -1.2 0  1.6 -1.2 0  1.7 -1.2 0  1.8 -1.2 0  1.9 -1.2 0  2 -1.2 0  -2 -1.1 0  -1.9 -1.1 0  -1.8 -1.1 0  -1.7 -1.1 0  -1.6 -1.1 0  -1.5 -1.1 0  -1.4 -1.1 0  -1.3 -1.1 0  -1.2 -1.1 0  -1.1 -1.1 0  -1 -1.1 0  -0.8999999999999999 -1.1 0  -0.8 -1.1 0  -0.7 -1.1 0  -0.6000000000000001 -1.1 0  -0.5 -1.1 0  -0.3999999999999999 -1.1 0  -0.3 -1.1 0  -0.2 -1.1 0  -0.1000000000000001 -1.1 0  0 -1.1 0  0.1000000000000001 -1.1 0  0.2000000000000002 -1.1 0  0.2999999999999998 -1.1 0  0.3999999999999999 -1.1 0  0.5 -1.1 0  0.6000000000000001 -1.1 0  0.7000000000000002 -1.1 0  0.7999999999999998 -1.1 0  0.8999999999999999 -1.1 0  1 -1.1 0  1.1 -1.1 0  1.2 -1.1 0  1.3 -1.1 0  1.4 -1.1 0  1.5 -1.1 0  1.6 -1.1 0  1.7 -1.1 0  1.8 -1.1 0  1.9 -1.1 0  2 -1.1 0  -2 -1 0  -1.9 -1 0  -1.8 -1 0  -1.7 -1 0  -1.6 -1 0  -1.5 -1 0  -1.4 -1 0  -1.3 -1 0  -1.2 -1 0  -1.1 -1 0  -1 -1 0  -0.8999999999999999 -1 0  -0.8 -1 0  -0.7 -1 0  -0.6000000000000001 -1 0  -0.5 -1 0  -0.3999999999999999 -1 0  -0.3 -1 0  -0.2 -1 0  -0.1000000000000001 -1 0  0 -1 0  0.1000000000000001 -1 0  0.2000000000000002 -1 0  0.2999999999999998 -1 0  0.3999999999999999 -1 0  0.5 -1 0  0.6000000000000001 -1 0  0.7000000000000002 -1 0  0.7999999999999998 -1 0  0.8999999999999999 -1 0  1 -1 0  1.1 -1 0  1.2 -1 0  1.3 -1 0  1.4 -1 0  1.5 -1 0  1.6 -1 0  1.7 -1 0  1.8 -1 0  1.9 -1 0  2 -1 0  -2 -0.8999999999999999 0  -1.9 -0.8999999999999999 0  -1.8 -0.8999999999999999 0  -1.7 -0.8999999999999999 0  -1.6 -0.8999999999999999 0  -1.5 -0.8999999999999999 0  -1.4 -0.8999999999999999 0  -1.3 -0.8999999999999999 0  -1.2 -0.8999999999999999 0  -1.1 -0.8999999999999999 0  -1 -0.8999999999999999 0  -0.8999999999999999 -0.8999999999999999 0  -0.8 -0.8999999999999999 0  -0.7 -0.8999999999999999 0  -0.6000000000000001 -0.8999999999999999 0  -0.5 -0.8999999999999999 0  -0.3999999999999999 -0.8999999999999999 0  -0.3 -0.8999999999999999 0  -0.2 -0.8999999999999999 0  -0.1000000000000001 -0.8999999999999999 0  0 -0.8999999999999999 0  0.1000000000000001 -0.8999999999999999 0  0.2000000000000002 -0.8999999999999999 0  0.2999999999999998 -0.8999999999999999 0  0.3999999999999999 -0.8999999999999999 0  0.5 -0.8999999999999999 0  0.6000000000000001 -0.8999999999999999 0  0.7000000000000002 -0.8999999999999999 0  0.7999999999999998 -0.8999999999999999 0  0.8999999999999999 -0.8999999999999999 0  1 -0.8999999999999999 0  1.1 -0.8999999999999999 0  1.2 -0.8999999999999999 0  1.3 -0.8999999999999999 0  1.4 -0.8999999999999999 0  1.5 -0.8999999999999999 0  1.6 -0.8999999999999999 0  1.7 -0.8999999999999999 0  1.8 -0.8999999999999999 0  1.9 -0.8999999999999999 0  2 -0.8999999999999999 0  -2 -0.8 0  -1.9 -0.8 0  -1.8 -0.8 0  -1.7 -0.8 0  -1.6 -0.8 0  -1.5 -0.8 0  -1.4 -0.8 0  -1.3 -0.8 0  -1.2 -0.8 0  -1.1 -0.8 0  -1 -0.8 0  -0.8999999999999999 -0.8 0  -0.8 -0.8 0  -0.7 -0.8 0  -0.6000000000000001 -0.8 0  -0.5 -0.8 0  -0.3999999999999999 -0.8 0  -0.3 -0.8 0  -0.2 -0.8 0  -0.1000000000000001 -0.8 0  0 -0.8 0  0.1000000000000001 -0.8 0  0.2000000000000002 -0.8 0  0.2999999999999998 -0.8 0  0.3999999999999999 -0.8 0  0.5 -0.8 0  0.6000000000000001 -0.8 0  0.7000000000000002 -0.8 0  0.7999999999999998 -0.8 0  0.8999999999999999 -0.8 0  1 -0.8 0  1.1 -0.8 0  1.2 -0.8 0  1.3 -0.8 0  1.4 -0.8 0  1.5 -0.8 0  1.6 -0.8 0  1.7 -0.8 0  1.8 -0.8 0  1.9 -0.8 0  2 -0.8 0  -2 -0.7 0  -1.9 -0.7 0  -1.8 -0.7 0  -1.7 -0.7 0  -1.6 -0.7 0  -1.5 -0.7 0  -1.4 -0.7 0  -1.3 -0.7 0  -1.2 -0.7 0  -1.1 -0.7 0  -1 -0.7 0  -0.8999999999999999 -0.7 0  -0.8 -0.7 0  -0.7 -0.7 0  -0.6000000000000001 -0.7 0  -0.5 -0.7 0  -0.3999999999999999 -0.7 0  -0.3 -0.7 0  -0.2 -0.7 0  -0.1000000000000001 -0.7 0  0 -0.7 0  0.1000000000000001 -0.7 0  0.2000000000000002 -0.7 0  0.2999999999999998 -0.7 0  0.3999999999999999 -0.7 0  0.5 -0.7 0  0.600000000000000
[...]
<PointData  Scalars="f_1726"> 
<DataArray  type="Float64"  Name="f_1726"  format="ascii">0.0000000000000000e+00  0.0000000000000000e+00  0.0000000000000000e+00  0.0000000000000000e+00  0.0000000000000000e+00  0.0000000000000000e+00  0.0000000000000000e+00  0.0000000000000000e+00  0.0000000000000000e+00  0.0000000000000000e+00  0.0000000000000000e+00  0.0000000000000000e+00  0.0000000000000000e+00  0.0000000000000000e+00  0.0000000000000000e+00  0.0000000000000000e+00  0.0000000000000000e+00  0.0000000000000000e+00  0.0000000000000000e+00  0.0000000000000000e+00  0.0000000000000000e+00  0.0000000000000000e+00  0.0000000000000000e+00  0.0000000000000000e+00  0.0000000000000000e+00  0.0000000000000000e+00  0.0000000000000000e+00  0.0000000000000000e+00  0.0000000000000000e+00  0.0000000000000000e+00  0.0000000000000000e+00  0.0000000000000000e+00  0.0000000000000000e+00  0.0000000000000000e+00  0.0000000000000000e+00  0.0000000000000000e+00  0.0000000000000000e+00  0.0000000000000000e+00  0.0000000000000000e+00  0.0000000000000000e+00  0.0000000000000000e+00  0.0000000000000000e+00  -5.9430303027685708e-12  -6.9257651752995843e-12  4.5511172956113155e-11  -1.0966902294154430e-11  -2.3049819461766808e-10  1.2418569478410569e-10  1.1341169463247566e-09  1.5603479626411436e-10  -4.7075135156475129e-09  -9.3932148310524983e-09  -8.2796852165970507e-09  -2.8537709764867071e-09  7.7233357428511418e-10  7.8245462494817873e-10  -7.4269338814495021e-11  -1.4997248191148100e-10  2.5126154200441964e-11  2.3082819678723068e-11  -8.9760084968231149e-12  -1.6398885619628623e-12  1.9542562282056702e-12  -3.8336550449935028e-13  -1.6713574307122646e-13  1.2484801335848891e-13  -2.7408664034722001e-14  -6.2270158133322793e-15  6.8781814423434476e-15  -2.4672977788418939e-15  2.8958590298831879e-16  1.8538719491457928e-16  -1.3817298575750015e-16  5.1780820786127940e-17  -1.1451124927025044e-17  9.4809396421766040e-20  1.3426340488901109e-18  -8.0764564938306418e-19  3.2860621798094837e-19  -1.0892978766578346e-19  3.4530030730656827e-20  0.0000000000000000e+00  0.0000000000000000e+00  -6.9257651752995819e-12  4.9807329893024929e-11  -4.4308525497144933e-11  -2.1819322131381213e-10  4.5820227772633113e-10  8.5637051295033674e-10  -2.4672060387964306e-09  -4.8194197301917480e-09  7.1860988573926875e-09  3.0799531457836618e-08  4.0208512022217081e-08  2.3548993097336525e-08  1.9046861647248174e-09  -4.5650501934156036e-09  -1.0376459254762242e-09  8.4753722251104941e-10  1.4338937253817897e-10  -1.6977678270296321e-10  7.7509814555785789e-12  2.6615076805388877e-11  -8.9694068014555414e-12  -1.2971670747385034e-12  1.8709420794519617e-12  -5.4118110306585916e-13  -5.0416096887299737e-14  1.0158227025437748e-13  -4.0510897254545319e-14  5.6345840941759703e-15  2.6815815101899035e-15  -2.1599465247632216e-15  8.1370796642920310e-16  -1.7373102983011097e-16  -3.2441369119060303e-18  2.2908336080868983e-17  -1.2996083352753215e-17  5.0807316383355838e-18  -1.6066213738260852e-18  4.3643085250528105e-19  -1.0892978766578355e-19  0.0000000000000000e+00  0.0000000000000000e+00  4.5511172956113168e-11  -4.4308525497144933e-11  -1.9948330473800117e-10  5.9078122372442120e-10  3.2593451003474661e-10  -3.5048362362329817e-09  2.1747532880501507e-10  1.7508228496498312e-08  6.6490703744308098e-09  -7.1218978332342546e-08  -1.5156456419104063e-07  -1.3435202563802529e-07  -4.3600332064359257e-08  1.4325825566939466e-08  1.1669712791216200e-08  -2.0736541280859299e-09  -2.0883117949057308e-09  6.1629196684811351e-10  2.4710806963671574e-10  -1.6264007077191277e-10  6.6251715872033296e-12  2.3652240767193152e-11  -9.7008919552755566e-12  2.8838457811996032e-13  1.3124182770124652e-12  -6.3634995716948868e-13  1.1722401818885822e-13  2.9774224650786908e-14  -3.1155118892462322e-14  1.2625187493939088e-14  -2.8874014119460024e-15  3.3194444266629319e-17  3.3283096658482511e-16  -1.9736713635656435e-16  7.8359278920164729e-17  -2.5019030545183741e-17  6.7797878180078421e-18  -1.6066213738260777e-18  3.2860621798094726e-19  0.0000000000000000e+00  0.0000000000000000e+00  -1.0966902294154351e-11  -2.1819322131381226e-10  5.9078122372442140e-10  1.1087346054262801e-10  -3.5898300648861063e-09  4.0877863355794465e-09  1.5668455801271097e-08  -2.8575822287294812e-08  -7.8950316934950253e-08  8.5837827914674906e-08  4.5610383894731960e-07  6.1475649480214017e-07  3.5217951098774359e-07  1.6248781967601756e-08  -6.9939257760406207e-08  -9.8906018092096382e-09  1.3206222872038591e-08  3.9744838147325425e-10  -2.3499700469448737e-09  4.8938555085696194e-10  2.4096439884884704e-10  -1.5737807410046482e-10  2.1116126003210569e-11  1.5146763215888621e-11  -9.6664508790689850e-12  2.2720686321051984e-12  2.5568343313050292e-13  -4.3933216082672787e-13  1.9549245950480010e-13  -4.8321506037230804e-14  2.0405247073130705e-15  4.7836069922832248e-15  -3.0105043169201528e-15  1.2193890258753101e-15  -3.9275196782325219e-16  1.0682306846314311e-16  -2.5019030545183855e-17  5.0807316383355900e-18  -8.0764564938306746e-19  0.0000000000000000e+00  0.0000000000000000e+00  -2.3049819461766854e-10  4.5820227772633119e-10  3.2593451003474656e-10  -3.5898300648861075e-09  5.3390924780707781e-09  1.1811202592677757e-08  -4.5116629213825822e-08  -2.5080539125911871e-08  2.4339510367963901e-07  1.6758071685439020e-07  -9.9128637993062469e-07  -2.2911475932625469e-06  -2.0420454031015082e-06  -6.0998533696272149e-07  2.4817446684602808e-07  1.5548614292497891e-07  -4.4918300010122919e-08  -2.3943657573008107e-08  1.1752907097923710e-08  1.2652810935605800e-09  -2.2659739543331830e-09  5.5745901662676815e-10  1.3863261312900207e-10  -1.3998232988731761e-10  4.1399643153541674e-11  5.4332832159069302e-13  -5.9988028964245133e-12  2.9989444811592833e-12  -8.0400895442129544e-13  5.6945131152221818e-14  6.7792532067788893e-14  -4.5839413365263521e-14  1.8984639193858572e-14  -6.1697602179591540e-15  1.6817803249456288e-15  -3.9275196782325160e-16  7.8359278920164902e-17  -1.2996083352753190e-17  1.3426340488901099e-18  0.0000000000000000e+00  0.0000000000000000e+00  1.2418569478410603e-10  8.5637051295033808e-10  -3.5048362362329842e-09  4.0877863355794499e-09  1.1811202592677763e-08  -4.8735582130251591e-08  1.3197842752212546e-08  2.5689693129339227e-07  -2.7597715231844358e-07  -1.2549477394529266e-06  9.1284748194164223e-07  6.7128119061143682e-06  9.4003099124716110e-06  5.2367455737420350e-06  2.5581034353578171e-08  -1.0511848241440595e-06  -4.9551255596622000e-08  1.9244906882259611e-07  -2.1561729088342967e-08  -2.7132866474473082e-08  1.1248301100978938e-08  4.6572960794743478e-10  -1.8881934674681757e-09  7.1505911683472072e-10  -4.7355259335984798e-11  -7.7945688888206423e-11  4.5405878149948465e-11  -1.3287114260241258e-11  1.3041568659310525e-12  9.4099419227012058e-13  -6.9575923811939977e-13  2.9556581553873722e-13  -9.7016110890788328e-14  2.6505116268505376e-14  -6.1697602179591532e-15  1.2193890258753085e-15  -1.9736713635656492e-16  2.2908336080868992e-17  9.4809396421752667e-20  0.0000000000000000e+00  0.0000000000000000e+00  1.1341169463247572e-09  -2.4672060387964348e-09  2.1747532880501535e-10  1.5668455801271113e-08  -4.5116629213825855e-08  1.3197842752212538e-08  2.4440512218998239e-07  -4.8780834711133667e-07  -7.7469444037236227e-07  3.1975303518214758e-06  3.5549631054221881e-06  -1.3535101971725667e-05  -3.4743423080031616e-05  -3.1147915397885400e-05  -8.3447880138175221e-06  4.2471506201711301e-06  1.9377701113181532e-06  -8.5532503298062111e-07  -2.1099977620273046e-07  1.8881418634765019e-07  -2.0072822544379529e-08  -2.2569128467270542e-08  1.1687723716313887e-08  -1.6186456983198112e-09  -9.3144295579654626e-10  6.7513850517913999e-10  -2.1789250590297119e-10  2.7243085990132684e-11  1.2672438646544806e-11  -1.0517024836085125e-11  4.6012561125357577e-12  -1.5273389867015220e-12  4.1831981343980397e-13  -9.7016110890788505e-14  1.8984639193858610e-14  -3.0105043169201580e-15  3.3283096658482708e-16  -3.2441369119062710e-18  -1.1451124927025002e-17  0.0000000000000000e+00  0.0000000000000000e+00  1.5603479626411637e-10  -4.8194197301917505e-09  1.7508228496498328e-08  -2.8575822287294845e-08  -2.5080539125911937e-08  2.5689693129339248e-07  -4.8780834711133677e-07  -5.2627938721573773e-07  3.7478708624507500e-06  -1.5119341996117091e-06  -1.9305893725034601e-05  7.3672728613763684e-06  9.8517100535924386e-05  1.4457957605725755e-04  7.7698665101550766e-05  -3.4654198466232482e-06  -1.5422228933732203e-05  9.0958770695114031e-07  2.5401975598755347e-06  -6.9769167309148165e-07  -2.0676086719560246e-07  1.7836802341389233e-07  -3.8460429449244248e-08  -9.3942935819547511e-09  9.7795702346500276e-09  -3.5396747760680344e-09  5.3945485649573595e-10  1.6282276897388007e-10  -1.5811968424305662e-10  7.1618571979772756e-11  -2.4078227972279870e-11  6.6131189012013855e-12  -1.5273389867015155e-12  2.9556581553873626e-13  -4.5839413365263357e-14  4.7836069922831972e-15  3.3194444266632591e-17  -1.7373102983011055e-16  5.1780820786127799e-17  0.0000000000000000e+00  0.0000000000000000e+00  -4.7075135156475112e-09  7.1860988573926743e-09  6.6490703744308197e-09  -7.8950316934950306e-08  2.4339510367963927e-07  -2.7597715231844358e-07  -7.7469444037236344e-07  3.7478708624507521e-06  -3.3480965521881230e-06  -1.6472986889080955e-05  3.7996206759844062e-05  6.8970225974170513e-05  -1.7924961390598012e-04  -5.2920475088277612e-04  -4.7747078876649425e-04  -1.1000753707101878e-04  7.1732589249689946e-05  2.1155799049574120e-05  -1.4700336241313850e-05  -4.3222724931045459e-07  2.4535498946969877e-06  -7.8016649891132876e-07  -5.5021264445899794e-08  1.3607597326736443e-07  -5.6797821298567562e-08  1.0311011496276849e-08  1.9282327455092453e-09  -2.3600858124697992e-09  1.1143794873829993e-09  -3.8019908739632574e-10  1.0474850455156031e-10  -2.4078227972279983e-11  4.6012561125357666e-12  -6.9575923811940310e-13  6.7792532067789562e-14  2.0405247073129309e-15  -2.8874014119459874e-15  8.1370796642919827e-16  -1.3817298575749966e-16  0.0000000000000000e+00  0.0000000000000000e+00  -9.3932148310524966e-09  3.0799531457836598e-08  -7.1218978332342479e-08  8.5837827914674826e-08  1.6758071685439038e-07  -1.2549477394529281e-06  3.1975303518214788e-06  -1.5119341996117049e-06  -1.6472986889080965e-05  4.5703355378269583e-05  2.0592463454000243e-05  -2.8319514572026732e-04  1.7769523679877120e-06  1.4387826220877734e-03  2.2413734332582783e-03  1.1480776350998310e-03  -1.2116033349122790e-04  -2.1686675492846647e-04  4.0105905537083817e-05  2.7587885439583265e-05  -1.4099071991374235e-05  7.3464612613379241e-07  1.7691833441281197e-06  -8.9567130236884890e-07  1.9205361429738745e-07  1.9223395712379732e-08  -3.4872669003620101e-08  1.7329710182969278e-08  -6.0148205134708905e-09  1.6630031128948372e-09  -3.8019908739632522e-10  7.1618571979772924e-11  -1.0517024836085109e-11  9.4099419227012018e-13  5.6945131152222045e-14  -4.8321506037230767e-14  1.2625187493939121e-14  -2.1599465247632192e-15  1.8538719491457946e-16  0.0000000000000000e+00  0.0000000000000000e+00  -8.2796852165970424e-09  4.0208512022217055e-08  -1.5156456419104061e-07  4.5610383894731928e-07  -9.9128637993062427e-07  9.1284748194164170e-07  3.5549631054221923e-06  -1.9305893725034624e-05  3.7996206759844062e-05  2.0592463454000273e-05  -2.8434822289876517e-04  3.5977560283709058e-04  1.2575762977539390e-03  -2.2467419098752559e-03  -8.1092876463933726e-03  -7.3680994280247870e-03  -1.3516072886755822e-03  1.1897126827142251e-03  1.5957231871715970e-04  -2.2352926053388075e-04  3.7878491961421401e-05  2.0123611617340406e-05  -1.3752733963683267e-05  3.5024814250805251e-06  1.0472910887306183e-07  -5.0778297225786033e-07  2.6923292454258506e-07  -9.5373112482061908e-08  2.6476008111992646e-08  -6.0148205134708938e-09  1.1143794873829987e-09  -1.5811968424305719e-10  1.2672438646544849e-11  1.3041568659310381e-12  -8.0400895442129191e-13  1.9549245950479911e-13  -3.1155118892462240e-14  2.6815815101898794e-15  2.8958590298832170e-16  0.0000000000000000e+00  0.0000000000000000e+00  -2.8537709764867021e-09  2.3548993097336496e-08  -1.3435202563802515e-07  6.1475649480213985e-07  -2.2911475932625452e-06  6.7128119061143665e-06  -1.3535101971725661e-05  7.3672728613763650e-06  6.8970225974170662e-05  -2.8319514572026748e-04  3.5977560283709047e-04  9.5659372015746008e-04  -3.8196470026305891e-03  -1.8794805299521091e-03  2.0821920514877232e-02  3.5145058741911338e-02  1.6824120867569559e-02  -3.0850776035099923e-03  -2.8007213361748644e-03  9.8088321258316016e-04  1.5814891748998309e-04  -2.0182912692808875e-04  6.2602230013341078e-05  -1.9254954762854672e-06  -7.2292731811603666e-06  4.1759746366848111e-06  -1.5165070879177308e-06  4.2297087249843471e-07  -9.5373112482062053e-08  1.7329710182969308e-08  -2.3600858124698054e-09  1.6282276897388172e-10  2.7243085990132461e-11  -1.3287114260241236e-11  2.9989444811592780e-12  -4.3933216082672676e-13  2.9774224650786927e-14  5.6345840941759648e-15  -2.4672977788418927e-15  0.0000000000000000e+00  0.0000000000000000e+00  7.7233357428511573e-10  1.9046861647248042e-09  -4.3600332064359191e-08  3.5217951098774311e-07  -2.0420454031015069e-06  9.4003099124716025e-06  -3.4743423080031589e-05  9.8517100535924345e-05  -1.7924961390598020e-04  1.7769523679871750e-06  1.2575762977539409e-03  -3.8196470026305900e-03  1.1421451711344979e-03  2.1583934433941125e-02  -2.5004437509670126e-02  -1.2533070910539207e-01  -1.1477728771766289e-01  -1.4048673829601755e-02  1.9102776989184774e-02  -6.9270837478991904e-04  -2.7105318273376762e-03  1.0924491577247329e-03  -9.6008434501555198e-05  -9.9138942155463535e-05  6.4592365059806570e-05  -2.4198475685585713e-05  6.7867838737299258e-06  -1.5165070879177252e-06  2.6923292454258427e-07  -3.4872669003619962e-08  1.9282327455092287e-09  5.3945485649573864e-10  -2.1789250590297062e-10  4.5405878149948329e-11  -5.9988028964244786e-12  2.5568343313049752e-13  1.1722401818885916e-13  -4.0510897254545338e-14  6.8781814423434508e-15  0.0000000000000000e+00  0.0000000000000000e+00  7.8245462494817894e-10  -4.5650501934156052e-09  1.4325825566939486e-08  1.6248781967601634e-08  -6.0998533696272075e-07  5.2367455737420324e-06  -3.1147915397885380e-05  1.4457957605725749e-04  -5.2920475088277579e-04  1.4387826220877743e-03  -2.2467419098752546e-03  -1.8794805299521186e-03  2.1583934433941146e-02  -4.2409239784243075e-02  -6.2167549459940234e-02  2.9564626959715201e-01  5.6092270419174528e-01  2.4207552322959464e-01  -6.9862693881084764e-02  -2.9041264071299169e-02  1.8358188215851994e-02  -2.7410240080650394e-03  -1.2670261678379617e-03  9.9418105666529725e-04  -3.8788621101674845e-04  1.0951953628805799e-04  -2.4198475685585829e-05  4.1759746366848196e-06  -5.0778297225786319e-07  1.9223395712380315e-08  1.0311011496276724e-08  -3.5396747760680262e-09  6.7513850517913647e-10  -7.7945688888206061e-11  5.4332832159065445e-13  2.2720686321051972e-12  -6.3634995716949020e-13  1.0158227025437726e-13  -6.2270158133322604e-15  0.0000000000000000e+00  0.0000000000000000e+00  -7.4269338814495370e-11  -1.0376459254762234e-09  1.1669712791216201e-08  -6.9939257760406247e-08  2.4817446684602850e-07  2.5581034353575302e-08  -8.3447880138175102e-06  7.7698665101550712e-05  -4.7747078876649409e-04  2.2413734332582770e-03  -8.1092876463933778e-03  2.0821920514877235e-02  -2.5004437509670119e-02  -6.2167549459940311e-02  3.3713461545887091e-01  -1.8952472326835332e-01  -1.9627334631122164e+00  -1.8139209512850454e+00  -6.9922588087587834e-02  2.8426034576374454e-01  -6.6471478644844220e-02  -1.3724033911224497e-02  1.5159808781016866e-02  -6.2556976838185055e-03  1.7810769023937575e-03  -3.8788621101674801e-04  6.4592365059806705e-05  -7.2292731811603556e-06  1.0472910887306103e-07  1.9205361429738759e-07  -5.6797821298567523e-08  9.7795702346500557e-09  -9.3144295579654585e-10  -4.7355259335984682e-11  4.1399643153541661e-11  -9.6664508790689753e-12  1.3124182770124676e-12  -5.0416096887299643e-14  -2.7408664034721988e-14  0.0000000000000000e+00  0.0000000000000000e+00  -1.4997248191148107e-10  8.4753722251105076e-10  -2.0736541280859398e-09  -9.8906018092095935e-09  1.5548614292497883e-07  -1.0511848241440604e-06  4.2471506201711369e-06  -3.4654198466232884e-06  -1.1000753707101858e-04  1.1480776350998292e-03  -7.3680994280247800e-03  3.5145058741911331e-02  -1.2533070910539207e-01  2.9564626959715190e-01  -1.8952472326835279e-01  -1.5325715977311578e+00  3.9987073063759926e+00  9.2367837187156940e+00  3.3174564226496148e+00  -1.4805444136833705e+00  -7.3210270040543479e-02  2.2663301025075216e-01  -1.0177000756665207e-01  2.9289256637888752e-02  -6.2556976838185055e-03  9.9418105666529660e-04  -9.9138942155463995e-05  -1.9254954762853939e-06  3.5024814250805098e-06  -8.9567130236884562e-07  1.3607597326736371e-07  -9.3942935819546816e-09  -1.6186456983198250e-09  7.1505911683472309e-10  -1.3998232988731795e-10  1.5146763215888640e-11  2.8838457811995861e-13  -5.4118110306585836e-13  1.2484801335848891e-13  0.0000000000000000e+00  0.0000000000000000e+00  2.5126154200442023e-11  1.4338937253817866e-10  -2.0883117949057316e-09  1.3206222872038603e-08  -4.4918300010123018e-08  -4.9551255596621636e-08  1.9377701113181536e-06  -1.5422228933732214e-05  7.1732589249690027e-05  -1.2116033349122832e-04  -1.3516072886755794e-03  1.6824120867569545e-02  -1.1477728771766288e-01  5.6092270419174528e-01  -1.9627334631122166e+00  3.9987073063759913e+00  1.6523893514270147e+00  -3.1454615960773051e+01  -2.9392580907886423e+01  2.5661639098828193e+00  3.2190241038218583e+00  -1.6778954782076803e+00  4.9007925194455770e-01  -1.0177000756665229e-01  1.5159808781016911e-02  -1.2670261678379702e-03  -9.6008434501554127e-05  6.2602230013340820e-05  -1.3752733963683252e-05  1.7691833441281183e-06  -5.5021264445899940e-08  -3.8460429449244288e-08  1.1687723716313874e-08  -1.8881934674681749e-09  1.3863261312900160e-10  2.1116126003210644e-11  -9.7008919552755986e-12  1.8709420794519629e-12  -1.6713574307122682e-13  0.0000000000000000e+00  0.0000000000000000e+00  2.3082819678723071e-11  -1.6977678270296331e-10  6.1629196684811444e-10  3.9744838147324804e-10  -2.3943657573008107e-08  1.9244906882259632e-07  -8.5532503298062301e-07  9.0958770695114772e-07  2.1155799049574103e-05  -2.1686675492846655e-04  1.1897126827142266e-03  -3.0850776035100001e-03  -1.4048673829601704e-02  2.4207552322959430e-01  -1.8139209512850447e+00  9.2367837187156958e+00  -3.1454615960773047e+01  4.4684411556528076e+01  1.6310796876633412e+02  3.7234947493598334e+01  -2.8315800438707345e+01  8.4558369070541772e+00  -1.6778954782076740e+00  2.2663301025075155e-01  -1.3724033911224402e-02  -2.7410240080650420e-03  1.0924491577247349e-03  -2.0182912692808821e-04  2.0123611617340324e-05  7.3464612613380871e-07  -7.8016649891133024e-07  1.7836802341389310e-07  -2.2569128467270582e-08  4.6572960794744377e-10  5.5745901662676722e-10  -1.5737807410046436e-10  2.3652240767193139e-11  -1.2971670747384909e-12  -3.8336550449935174e-13  0.0000000000000000e+00  0.0000000000000000e+00  -8.9760084968231181e-12  7.7509814555785789e-12  2.4710806963671600e-10  -2.3499700469448762e-09  1.1752907097923728e-08  -2.1561729088343023e-08  -2.1099977620273038e-07  2.5401975598755377e-06  -1.4700336241313868e-05  4.0105905537083865e-05  1.5957231871715957e-04  -2.8007213361748661e-03  1.9102776989184788e-02  -6.9862693881084861e-02  -6.9922588087587043e-02  3.3174564226496148e+00  -2.9392580907886423e+01  1.6310796876633412e+02  -5.3052849252016790e+02  -5.0310448994260213e+02  1.5628847522100381e+02  -2.8315800438707477e+01  3.2190241038218708e+00  -7.3210270040546518e-02  -6.6471478644843693e-02  1.8358188215851882e-02  -2.7105318273376680e-03  1.5814891748998071e-04  3.7878491961421693e-05  -1.4099071991374271e-05  2.4535498946969902e-06  -2.0676086719560318e-07  -2.0072822544379502e-08  1.1248301100978949e-08  -2.265973954333184