<?xml version="1.0"?>
<VTKFile type="UnstructuredGrid"  version="0.1"  >
<UnstructuredGrid>
<Piece  NumberOfPoints="1681" NumberOfCells="3200">
<Points>
<DataArray  type="Float64"  NumberOfComponents="3"  format="ascii">-2 -2 0  -1.9 -2 0  -1.8 -2 0  -1.7 -2 0  -1.6 -2 0  -1.5 -2 0  -1.4 -2 0  -1.3 -2 0  -1.2 -2 0  -1.1 -2 0  -1 -2 0  -0.8999999999999999 -2 0  -0.8 -2 0  -0.7 -2 0  -0.6000000000000001 -2 0  -0.5 -2 0  -0.3999999999999999 -2 0  -0.3 -2 0  -0.2 -2 0  -0.1000000000000001 -2 0  0 -2 0  0.1000000000000001 -2 0  0.2000000000000002 -2 0  0.2999999999999998 -2 0  0.3999999999999999 -2 0  0.5 -2 0  0.6000000000000001 -2 0  0.7000000000000002 -2 0  0.7999999999999998 -2 0  0.8999999999999999 -2 0  1 -2 0  1.1 -2 0  1.2 -2 0  1.3 -2 0  1.4 -2 0  1.5 -2 0  1.6 -2 0  1.7 -2 0  1.8 -2 0  1.9 -2 0  2 -2 0  -2 -1.9 0  -1.9 -1.9 0  -1.8 -1.9 0  -1.7 -1.9 0  -1.6 -1.9 0  -1.5 -1.9 0  -1.4 -1.9 0  -1.3 -1.9 0  -1.2 -1.9 0  -1.1 -1.9 0  -1 -1.9 0  -0.8999999999999999 -1.9 0  -0.8 -1.9 0  -0.7 -1.9 0  -0.6000000000000001 -1.9 0  -0.5 -1.9 0  -0.3999999999999999 -1.9 0  -0.3 -1.9 0  -0.2 -1.9 0  -0.1000000000000001 -1.9 0  0 -1.9 0  0.1000000000000001 -1.9 0  0.2000000000000002 -1.9 0  0.2999999999999998 -1.9 0  0.3999999999999999 -1.9 0  0.5 -1.9 0  0.6000000000000001 -1.9 0  0.7000000000000002 -1.9 0  0.7999999999999998 -1.9 0  0.8999999999999999 -1.9 0  1 -1.9 0  1.1 -1.9 0  1.2 -1.9 0  1.3 -1.9 0  1.4 -1.9 0  1.5 -1.9 0  1.6 -1.9 0  1.7 -1.9 0  1.8 -1.9 0  1.9 -1.9 0  2 -1.9 0  -2 -1.8 0  -1.9 -1.8 0  -1.8 -1.8 0  -1.7 -1.8 0  -1.6 -1.8 0  -1.5 -1.8 0  -1.4 -1.8 0  -1.3 -1.8 0  -1.2 -1.8 0  -1.1 -1.8 0  -1 -1.8 0  -0.8999999999999999 -1.8 0  -0.8 -1.8 0  -0.7 -1.8 0  -0.6000000000000001 -1.8 0  -0.5 -1.8 0  -0.3999999999999999 -1.8 0  -0.3 -1.8 0  -0.2 -1.8 0  -0.1000000000000001 -1.8 0  0 -1.8 0  0.1000000000000001 -1.8 0  0.2000000000000002 -1.8 0  0.2999999999999998 -1.8 0  0.3999999999999999 -1.8 0  0.5 -1.8 0  0.6000000000000001 -1.8 0  0.7000000000000002 -1.8 0  0.7999999999999998 -1.8 0  0.8999999999999999 -1.8 0  1 -1.8 0  1.1 -1.8 0  1.2 -1.8 0  1.3 -1.8 0  1.4 -1.8 0  1.5 -1.8 0  1.6 -1.8 0  1.7 -1.8 0  1.8 -1.8 0  1.9 -1.8 0  2 -1.8 0  -2 -1.7 0  -1.9 -1.7 0  -1.8 -1.7 0  -1.7 -1.7 0  -1.6 -1.7 0  -1.5 -1.7 0  -1.4 -1.7 0  -1.3 -1.7 0  -1.2 -1.7 0  -1.1 -1.7 0  -1 -1.7 0  -0.8999999999999999 -1.7 0  -0.8 -1.7 0  -0.7 -1.7 0  -0.6000000000000001 -1.7 0  -0.5 -1.7 0  -0.3999999999999999 -1.7 0  -0.3 -1.7 0  -0.2 -1.7 0  -0.1000000000000001 -1.7 0  0 -1.7 0  0.1000000000000001 -1.7 0  0.2000000000000002 -1.7 0  0.2999999999999998 -1.7 0  0.3999999999999999 -1.7 0  0.5 -1.7 0  0.6000000000000001 -1.7 0  0.7000000000000002 -1.7 0  0.7999999999999998 -1.7 0  0.8999999999999999 -1.7 0  1 -1.7 0  1.1 -1.7 0  1.2 -1.7 0  1.3 -1.7 0  1.4 -1.7 0  1.5 -1.7 0  1.6 -1.7 0  1.7 -1.7 0  1.8 -1.7 0  1.9 -1.7 0  2 -1.7 0  -2 -1.6 0  -1.9 -1.6 0  -1.8 -1.6 0  -1.7 -1.6 0  -1.6 -1.6 0  -1.5 -1.6 0  -1.4 -1.6 0  -1.3 -1.6 0  -1.2 -1.6 0  -1.1 -1.6 0  -1 -1.6 0  -0.8999999999999999 -1.6 0  -0.8 -1.6 0  -0.7 -1.6 0  -0.6000000000000001 -1.6 0  -0.5 -1.6 0  -0.3999999999999999 -1.6 0  -0.3 -1.6 0  -0.2 -1.6 0  -0.1000000000000001 -1.6 0  0 -1.6 0  0.1000000000000001 -1.6 0  0.2000000000000002 -1.6 0  0.2999999999999998 -1.6 0  0.3999999999999999 -1.6 0  0.5 -1.6 0  0.6000000000000001 -1.6 0  0.7000000000000002 -1.6 0  0.7999999999999998 -1.6 0  0.8999999999999999 -1.6 0  1 -1.6 0  1.1 -1.6 0  1.2 -1.6 0  1.3 -1.6 0  1.4 -1.6 0  1.5 -1.6 0  1.6 -1.6 0  1.7 -1.6 0  1.8 -1.6 0  1.9 -1.6 0  2 -1.6 0  -2 -1.5 0  -1.9 -1.5 0  -1.8 -1.5 0  -1.7 -1.5 0  -1.6 -1.5 0  -1.5 -1.5 0  -1.4 -1.5 0  -1.3 -1.5 0  -1.2 -1.5 0  -1.1 -1.5 0  -1 -1.5 0  -0.8999999999999999 -1.5 0  -0.8 -1.5 0  -0.7 -1.5 0  -0.6000000000000001 -1.5 0  -0.5 -1.5 0  -0.3999999999999999 -1.5 0  -0.3 -1.5 0  -0.2 -1.5 0  -0.1000000000000001 -1.5 0  0 -1.5 0  0.1000000000000001 -1.5 0  0.2000000000000002 -1.5 0  0.2999999999999998 -1.5 0  0.3999999999999999 -1.5 0  0.5 -1.5 0  0.6000000000000001 -1.5 0  0.7000000000000002 -1.5 0  0.7999999999999998 -1.5 0  0.8999999999999999 -1.5 0  1 -1.5 0  1.1 -1.5 0  1.2 -1.5 0  1.3 -1.5 0  1.4 -1.5 0  1.5 -1.5 0  1.6 -1.5 0  1.7 -1.5 0  1.8 -1.5 0  1.9 -1.5 0  2 -1.5 0  -2 -1.4 0  -1.9 -1.4 0  -1.8 -1.4 0  -1.7 -1.4 0  -1.6 -1.4 0  -1.5 -1.4 0  -1.4 -1.4 0  -1.3 -1.4 0  -1.2 -1.4 0  -1.1 -1.4 0  -1 -1.4 0  -0.8999999999999999 -1.4 0  -0.8 -1.4 0  -0.7 -1.4 0  -0.6000000000000001 -1.4 0  -0.5 -1.4 0  -0.3999999999999999 -1.4 0  -0.3 -1.4 0  -0.2 -1.4 0  -0.1000000000000001 -1.4 0  0 -1.4 0  0.1000000000000001 -1.4 0  0.2000000000000002 -1.4 0  0.2999999999999998 -1.4 0  0.3999999999999999 -1.4 0  0.5 -1.4 0  0.6000000000000001 -1.4 0  0.7000000000000002 -1.4 0  0.7999999999999998 -1.4 0  0.8999999999999999 -1.4 0  1 -1.4 0  1.1 -1.4 0  1.2 -1.4 0  1.3 -1.4 0  1.4 -1.4 0  1.5 -1.4 0  1.6 -1.4 0  1.7 -1.4 0  1.8 -1.4 0  1.9 -1.4 0  2 -1.4 0  -2 -1.3 0  -1.9 -1.3 0  -1.8 -1.3 0  -1.7 -1.3 0  -1.6 -1.3 0  -1.5 -1.3 0  -1.4 -1.3 0  -1.3 -1.3 0  -1.2 -1.3 0  -1.1 -1.3 0  -1 -1.3 0  -0.8999999999999999 -1.3 0  -0.8 -1.3 0  -0.7 -1.3 0  -0.6000000000000001 -1.3 0  -0.5 -1.3 0  -0.3999999999999999 -1.3 0  -0.3 -1.3 0  -0.2 -1.3 0  -0.1000000000000001 -1.3 0  0 -1.3 0  0.1000000000000001 -1.3 0  0.2000000000000002 -1.3 0  0.2999999999999998 -1.3 0  0.3999999999999999 -1.3 0  0.5 -1.3 0  0.6000000000000001 -1.3 0  0.7000000000000002 -1.3 0  0.7999999999999998 -1.3 0  0.8999999999999999 -1.3 0  1 -1.3 0  1.1 -1.3 0  1.2 -1.3 0  1.3 -1.3 0  1.4 -1.3 0  1.5 -1.3 0  1.6 -1.3 0  1.7 -1.3 0  1.8 -1.3 0  1.9 -1.3 0  2 -1.3 0  -2 -1.2 0  -1.9 -1.2 0  -1.8 -1.2 0  -1.7 -1.2 0  -1.6 -1.2 0  -1.5 -1.2 0  -1.4 -1.2 0  -1.3 -1.2 0  -1.2 -1.2 0  -1.1 -1.2 0  -1 -1.2 0  -0.8999999999999999 -1.2 0  -0.8 -1.2 0  -0.7 -1.2 0  -0.6000000000000001 -1.2 0  -0.5 -1.2 0  -0.3999999999999999 -1.2 0  -0.3 -1.2 0  -0.2 -1.2 0  -0.1000000000000001 -1.2 0  0 -1.2 0  0.1000000000000001 -1.2 0  0.2000000000000002 -1.2 0  0.2999999999999998 -1.2 0  0.3999999999999999 -1.2 0  0.5 -1.2 0  0.6000000000000001 -1.2 0  0.7000000000000002 -1.2 0  0.7999999999999998 -1.2 0  0.8999999999999999 -1.2 0  1 -1.2 0  1.1 -1.2 0  1.2 -1.2 0  1.3 -1.2 0  1.4 -1.2 0  1.5 -1.2 0  1.6 -1.2 0  1.7 -1.2 0  1.8 -1.2 0  1.9 -1.2 0  2 -1.2 0  -2 -1.1 0  -1.9 -1.1 0  -1.8 -1.1 0  -1.7 -1.1 0  -1.6 -1.1 0  -1.5 -1.1 0  -1.4 -1.1 0  -1.3 -1.1 0  -1.2 -1.1 0  -1.1 -1.1 0  -1 -1.1 0  -0.8999999999999999 -1.1 0  -0.8 -1.1 0  -0.7 -1.1 0  -0.6000000000000001 -1.1 0  -0.5 -1.1 0  -0.3999999999999999 -1.1 0  -0.3 -1.1 0  -0.2 -1.1 0  -0.1000000000000001 -1.1 0  0 -1.1 0  0.1000000000000001 -1.1 0  0.2000000000000002 -1.1 0  0.2999999999999998 -1.1 0  0.3999999999999999 -1.1 0  0.5 -1.1 0  0.6000000000000001 -1.1 0  0.7000000000000002 -1.1 0  0.7999999999999998 -1.1 0  0.8999999999999999 -1.1 0  1 -1.1 0  1.1 -1.1 0  1.2 -1.1 0  1.3 -1.1 0  1.4 -1.1 0  1.5 -1.1 0  1.6 -1.1 0  1.7 -1.1 0  1.8 -1.1 0  1.9 -1.1 0  2 -1.1 0  -2 -1 0  -1.9 -1 0  -1.8 -1 0  -1.7 -1 0  -1.6 -1 0  -1.5 -1 0  -1.4 -1 0  -1.3 -1 0  -1.2 -1 0  -1.1 -1 0  -1 -1 0  -0.8999999999999999 -1 0  -0.8 -1 0  -0.7 -1 0  -0.6000000000000001 -1 0  -0.5 -1 0  -0.3999999999999999 -1 0  -0.3 -1 0  -0.2 -1 0  -0.1000000000000001 -1 0  0 -1 0  0.1000000000000001 -1 0  0.2000000000000002 -1 0  0.2999999999999998 -1 0  0.3999999999999999 -1 0  0.5 -1 0  0.6000000000000001 -1 0  0.7000000000000002 -1 0  0.7999999999999998 -1 0  0.8999999999999999 -1 0  1 -1 0  1.1 -1 0  1.2 -1 0  1.3 -1 0  1.4 -1 0  1.5 -1 0  1.6 -1 0  1.7 -1 0  1.8 -1 0  1.9 -1 0  2 -1 0  -2 -0.8999999999999999 0  -1.9 -0.8999999999999999 0  -1.8 -0.8999999999999999 0  -1.7 -0.8999999999999999 0  -1.6 -0.8999999999999999 0  -1.5 -0.8999999999999999 0  -1.4 -0.8999999999999999 0  -1.3 -0.8999999999999999 0  -1.2 -0.8999999999999999 0  -1.1 -0.8999999999999999 0  -1 -0.8999999999999999 0  -0.8999999999999999 -0.8999999999999999 0  -0.8 -0.8999999999999999 0  -0.7 -0.8999999999999999 0  -0.6000000000000001 -0.8999999999999999 0  -0.5 -0.8999999999999999 0  -0.3999999999999999 -0.8999999999999999 0  -0.3 -0.8999999999999999 0  -0.2 -0.8999999999999999 0  -0.1000000000000001 -0.8999999999999999 0  0 -0.8999999999999999 0  0.1000000000000001 -0.8999999999999999 0  0.2000000000000002 -0.8999999999999999 0  0.2999999999999998 -0.8999999999999999 0  0.3999999999999999 -0.8999999999999999 0  0.5 -0.8999999999999999 0  0.6000000000000001 -0.8999999999999999 0  0.7000000000000002 -0.8999999999999999 0  0.7999999999999998 -0.8999999999999999 0  0.8999999999999999 -0.8999999999999999 0  1 -0.8999999999999999 0  1.1 -0.8999999999999999 0  1.2 -0.8999999999999999 0  1.3 -0.8999999999999999 0  1.4 -0.8999999999999999 0  1.5 -0.8999999999999999 0  1.6 -0.8999999999999999 0  1.7 -0.8999999999999999 0  1.8 -0.8999999999999999 0  1.9 -0.8999999999999999 0  2 -0.8999999999999999 0  -2 -0.8 0  -1.9 -0.8 0  -1.8 -0.8 0  -1.7 -0.8 0  -1.6 -0.8 0  -1.5 -0.8 0  -1.4 -0.8 0  -1.3 -0.8 0  -1.2 -0.8 0  -1.1 -0.8 0  -1 -0.8 0  -0.8999999999999999 -0.8 0  -0.8 -0.8 0  -0.7 -0.8 0  -0.6000000000000001 -0.8 0  -0.5 -0.8 0  -0.3999999999999999 -0.8 0  -0.3 -0.8 0  -0.2 -0.8 0  -0.1000000000000001 -0.8 0  0 -0.8 0  0.1000000000000001 -0.8 0  0.2000000000000002 -0.8 0  0.2999999999999998 -0.8 0  0.3999999999999999 -0.8 0  0.5 -0.8 0  0.6000000000000001 -0.8 0  0.7000000000000002 -0.8 0  0.7999999999999998 -0.8 0  0.8999999999999999 -0.8 0  1 -0.8 0  1.1 -0.8 0  1.2 -0.8 0  1.3 -0.8 0  1.4 -0.8 0  1.5 -0.8 0  1.6 -0.8 0  1.7 -0.8 0  1.8 -0.8 0  1.9 -0.8 0  2 -0.8 0  -2 -0.7 0  -1.9 -0.7 0  -1.8 -0.7 0  -1.7 -0.7 0  -1.6 -0.7 0  -1.5 -0.7 0  -1.4 -0.7 0  -1.3 -0.7 0  -1.2 -0.7 0  -1.1 -0.7 0  -1 -0.7 0  -0.8999999999999999 -0.7 0  -0.8 -0.7 0  -0.7 -0.7 0  -0.6000000000000001 -0.7 0  -0.5 -0.7 0  -0.3999999999999999 -0.7 0  -0.3 -0.7 0  -0.2 -0.7 0  -0.1000000000000001 -0.7 0  0 -0.7 0  0.1000000000000001 -0.7 0  0.2000000000000002 -0.7 0  0.2999999999999998 -0.7 0  0.3999999999999999 -0.7 0  0.5 -0.7 0  0.600000000000000
[...]
<PointData  Scalars="f_1726"> 
<DataArray  type="Float64"  Name="f_1726"  format="ascii">0.0000000000000000e+00  0.0000000000000000e+00  0.0000000000000000e+00  0.0000000000000000e+00  0.0000000000000000e+00  0.0000000000000000e+00  0.0000000000000000e+00  0.0000000000000000e+00  0.0000000000000000e+00  0.0000000000000000e+00  0.0000000000000000e+00  0.0000000000000000e+00  0.0000000000000000e+00  0.0000000000000000e+00  0.0000000000000000e+00  0.0000000000000000e+00  0.0000000000000000e+00  0.0000000000000000e+00  0.0000000000000000e+00  0.0000000000000000e+00  0.0000000000000000e+00  0.0000000000000000e+00  0.0000000000000000e+00  0.0000000000000000e+00  0.0000000000000000e+00  0.0000000000000000e+00  0.0000000000000000e+00  0.0000000000000000e+00  0.0000000000000000e+00  0.0000000000000000e+00  0.0000000000000000e+00  0.0000000000000000e+00  0.0000000000000000e+00  0.0000000000000000e+00  0.0000000000000000e+00  0.0000000000000000e+00  0.0000000000000000e+00  0.0000000000000000e+00  0.0000000000000000e+00  0.0000000000000000e+00  0.0000000000000000e+00  0.0000000000000000e+00  -2.2537253299919565e-11  -2.6263995991872160e-11  1.7258818828679842e-10  -4.1588859946361780e-11  -8.7409889107456503e-10  4.7093895150964671e-10  4.3008161811231570e-09  5.9171761674637827e-10  -1.7851907042358265e-08  -3.5621097514742908e-08  -3.1398352938419068e-08  -1.0822115331816147e-08  2.9288555684441188e-09  2.9672367764868497e-09  -2.8164535868175929e-10  -5.6872801259015777e-10  9.5283798469679396e-11  8.7535033050967791e-11  -3.4038961070229328e-11  -6.2188112834256675e-12  7.4109613083242829e-12  -1.4538047159760153e-12  -6.3381480241010153e-13  4.7345060645933850e-13  -1.0393956828306268e-13  -2.3614187634597259e-14  2.6083548208846636e-14  -9.3565255728520333e-15  1.0981722312089339e-15  7.0302824611293860e-16  -5.2398177706956669e-16  1.9636404572782648e-16  -4.3425136656153485e-17  3.5953768927853957e-19  5.0915580280377679e-18  -3.0627665768832884e-18  1.2461456854956934e-18  -4.1308525978515717e-19  1.3094532744823605e-19  0.0000000000000000e+00  0.0000000000000000e+00  -2.6263995991872176e-11  1.8888014241974007e-10  -1.6802748961416258e-10  -8.2743577712938415e-10  1.7376019083913700e-09  3.2475417734203277e-09  -9.3561776748038982e-09  -1.8276279555122293e-08  2.7251237489378837e-08  1.1679846923559178e-07  1.5247935381305688e-07  8.9302863245622225e-08  7.2229809313370229e-09  -1.7311655383605528e-08  -3.9349772534716666e-09  3.2140440300200903e-09  5.4376344133800301e-10  -6.4383019457928672e-10  2.9393394192517398e-11  1.0093011426854590e-10  -3.4013926016876422e-11  -4.9191374511549022e-12  7.0950160786567146e-12  -2.0522755193160079e-12  -1.9118871822225863e-13  3.8522188830793561e-13  -1.5362606386297229e-13  2.1367558720167399e-14  1.0169135720438241e-14  -8.1909832968868415e-15  3.0857561912538575e-15  -6.5882555293603114e-16  -1.2302467192399458e-17  8.6873353597695174e-17  -4.9283952378876676e-17  1.9267230696895784e-17  -6.0926549275906119e-18  1.6550399660976429e-18  -4.1308525978515780e-19  0.0000000000000000e+00  0.0000000000000000e+00  1.7258818828679855e-10  -1.6802748961416269e-10  -7.5648373623318066e-10  2.2403698796068916e-09  1.2360139924604228e-09  -1.3291095284155308e-08  8.2471337382860511e-10  6.6394980398237781e-08  2.5214709601552904e-08  -2.7007773352421861e-07  -5.7476553213503251e-07  -5.0949187180669406e-07  -1.6534186730249531e-07  5.4326621787907039e-08  4.4254069004230135e-08  -7.8637439084443291e-09  -7.9193289438680682e-09  2.3371121222604409e-09  9.3708712123888010e-10  -6.1676624297134725e-10  2.5124080243486846e-11  8.9694400688583150e-11  -3.6787875560612119e-11  1.0936165480852744e-12  4.9769733010943675e-12  -2.4131763496882534e-12  4.4453877166433737e-13  1.1291028458173831e-13  -1.1814693351663285e-13  4.7877435250049098e-14  -1.0949649199879999e-14  1.2588049538272856e-16  1.2621668438212201e-15  -7.4845876910227043e-16  2.9715529409299923e-16  -9.4877562453712485e-17  2.5710418353911249e-17  -6.0926549275905857e-18  1.2461456854956897e-18  0.0000000000000000e+00  0.0000000000000000e+00  -4.1588859946361722e-11  -8.2743577712938467e-10  2.2403698796068924e-09  4.2045608674143816e-10  -1.3613410222444129e-08  1.5501767850314727e-08  5.9418165350315886e-08  -1.0836568422715799e-07  -2.9939663777972032e-07  3.2551556560745097e-07  1.7296441757385648e-06  2.3312892809367262e-06  1.3355406992414363e-06  6.1618887396285070e-08  -2.6522475697631006e-07  -3.7507296262473912e-08  5.0080846780079963e-08  1.5072100242754866e-09  -8.9115934964269174e-09  1.8558556088542799e-09  9.1378899592509613e-10  -5.9681161615537661e-10  8.0076906258693583e-11  5.7439794495303215e-11  -3.6657267567913921e-11  8.6161745217254095e-12  9.6960675000609792e-13  -1.6660423532991925e-12  7.4134958996111267e-13  -1.8324557774631152e-13  7.7381099961807976e-15  1.8140469925272023e-14  -1.1416481978785054e-14  4.6241863068562297e-15  -1.4894002103187977e-15  4.0509612597919443e-16  -9.4877562453712941e-17  1.9267230696895808e-17  -3.0627665768833011e-18  0.0000000000000000e+00  0.0000000000000000e+00  -8.7409889107456638e-10  1.7376019083913714e-09  1.2360139924604237e-09  -1.3613410222444134e-08  2.0246990750479800e-08  4.4790628862154624e-08  -1.7109199328108141e-07  -9.5110816264204245e-08  9.2300675314288729e-07  6.3550223901265707e-07  -3.7591718532630137e-06  -8.6885260593075370e-06  -7.7438768027475083e-06  -2.3131960208854058e-06  9.4113112956463283e-07  5.8963700489551565e-07  -1.7033988614500618e-07  -9.0799516098384369e-08  4.4569559766998865e-08  4.7982189301457682e-09  -8.5930621884994924e-09  2.1140048800001532e-09  5.2572478324106385e-10  -5.3084320043155469e-10  1.5699638008626574e-10  2.0604182352907242e-12  -2.2748755009717667e-11  1.1372644587189239e-11  -3.0489754448593193e-12  2.1594822499506641e-13  2.5708390992772228e-13  -1.7383294674627427e-13  7.1993848343706349e-14  -2.3397062062284294e-14  6.3776738880943671e-15  -1.4894002103187955e-15  2.9715529409299997e-16  -4.9283952378876589e-17  5.0915580280377617e-18  0.0000000000000000e+00  0.0000000000000000e+00  4.7093895150964805e-10  3.2475417734203318e-09  -1.3291095284155314e-08  1.5501767850314737e-08  4.4790628862154644e-08  -1.8481584364071615e-07  5.0049067557430561e-08  9.7420859688937652e-07  -1.0465649121616891e-06  -4.7590326216301402e-06  3.4617146264807888e-06  2.5456431243895457e-05  3.5648003594466503e-05  1.9858869204768510e-05  9.7008802164774036e-08  -3.9863196786544531e-06  -1.8790905343186449e-07  7.2980839578892516e-07  -8.1766729310104840e-08  -1.0289368442278128e-07  4.2655984942299593e-08  1.7661471688431269e-09  -7.1604370645324736e-09  2.7116584670640921e-09  -1.7958136175770237e-10  -2.9558687144702616e-10  1.7218888766122470e-10  -5.0387604378952764e-11  4.9456442476197683e-12  3.5684530255659995e-12  -2.6384691624323684e-12  1.1208493499504245e-12  -3.6790602671169440e-13  1.0051312018531138e-13  -2.3397062062284294e-14  4.6241863068562234e-15  -7.4845876910227241e-16  8.6873353597695137e-17  3.5953768927850341e-19  0.0000000000000000e+00  0.0000000000000000e+00  4.3008161811231595e-09  -9.3561776748039097e-09  8.2471337382861007e-10  5.9418165350315919e-08  -1.7109199328108151e-07  5.0049067557430502e-08  9.2683696127670978e-07  -1.8498745119205891e-06  -2.9378084820765329e-06  1.2125725059757915e-05  1.3481187188536619e-05  -5.1328027291887893e-05  -1.3175455728303654e-04  -1.1811961631082137e-04  -3.1645236793412643e-05  1.6106111605238897e-05  7.3484423956993582e-06  -3.2435770877806617e-06  -8.0015668106083694e-07  7.1602413710608929e-07  -7.6120474417953315e-08  -8.5587005132440287e-08  4.4322370318612333e-08  -6.1382537606891454e-09  -3.5322326758847771e-09  2.5602708935646938e-09  -8.2629539940286412e-10  1.0331166060941748e-10  4.8056621816621408e-11  -3.9882827550446297e-11  1.7448956041451274e-11  -5.7919990079975107e-12  1.5863589979468922e-12  -3.6790602671169495e-13  7.1993848343706475e-14  -1.1416481978785067e-14  1.2621668438212264e-15  -1.2302467192400159e-17  -4.3425136656153337e-17  0.0000000000000000e+00  0.0000000000000000e+00  5.9171761674637899e-10  -1.8276279555122296e-08  6.6394980398237848e-08  -1.0836568422715807e-07  -9.5110816264204378e-08  9.7420859688937716e-07  -1.8498745119205895e-06  -1.9957649973082137e-06  1.4212735028978669e-05  -5.7335807312956773e-06  -7.3212114846484919e-05  2.7938288406356085e-05  3.7359810333079335e-04  5.4827694990541365e-04  2.9465010394503805e-04  -1.3141619829455255e-05  -5.8484419937578483e-05  3.4493528563199511e-06  9.6329772729045266e-06  -2.6457973728288602e-06  -7.8408182343063966e-07  6.7641003317990585e-07  -1.4585024749369132e-07  -3.5625188370938032e-08  3.7086240573262035e-08  -1.3423210544697755e-08  2.0457292198312382e-09  6.1745907397597188e-10  -5.9962396184131315e-10  2.7159307885991036e-10  -9.1309836090131126e-11  2.5078373857429309e-11  -5.7919990079974857e-12  1.1208493499504207e-12  -1.7383294674627356e-13  1.8140469925271906e-14  1.2588049538274219e-16  -6.5882555293602986e-16  1.9636404572782591e-16  0.0000000000000000e+00  0.0000000000000000e+00  -1.7851907042358278e-08  2.7251237489378847e-08  2.5214709601552881e-08  -2.9939663777972048e-07  9.2300675314288814e-07  -1.0465649121616897e-06  -2.9378084820765372e-06  1.4212735028978679e-05  -1.2696704580843095e-05  -6.2469120837651030e-05  1.4408981488514344e-04  2.6154997934445224e-04  -6.7975321455620240e-04  -2.0068586075709261e-03  -1.8106722600303583e-03  -4.1717231808743578e-04  2.7202545695017378e-04  8.0227355011185952e-05  -5.5746847077346815e-05  -1.6390989957260209e-06  9.3043906296451376e-06  -2.9585597088214486e-06  -2.0865250731120032e-07  5.1602945321194355e-07  -2.1538959424337145e-07  3.9101580512170436e-08  7.3122746465715782e-09  -8.9499546620853953e-09  4.2259674778513744e-09  -1.4417969790693373e-09  3.9722893197541615e-10  -9.1309836090131514e-11  1.7448956041451303e-11  -2.6384691624323801e-12  2.5708390992772471e-13  7.7381099961802706e-15  -1.0949649199879943e-14  3.0857561912538394e-15  -5.2398177706956481e-16  0.0000000000000000e+00  0.0000000000000000e+00  -3.5621097514742914e-08  1.1679846923559180e-07  -2.7007773352421866e-07  3.2551556560745119e-07  6.3550223901265718e-07  -4.7590326216301444e-06  1.2125725059757930e-05  -5.7335807312956782e-06  -6.2469120837651071e-05  1.7331698550089209e-04  7.8091064875765480e-05  -1.0739371006457811e-03  6.7385868116078637e-06  5.4561741646191476e-03  8.4997717042633886e-03  4.3537581254068022e-03  -4.5946612867218012e-04  -8.2240553037017888e-04  1.5209024788092213e-04  1.0461921452283446e-04  -5.3466723300296135e-05  2.7859366328266586e-06  6.7091249967275974e-06  -3.3965788472510278e-06  7.2830874689784036e-07  7.2899264581010671e-08  -1.3224468571407276e-07  6.5718000432511547e-08  -2.2809497269851732e-08  6.3064666482359672e-09  -1.4417969790693351e-09  2.7159307885991093e-10  -3.9882827550446252e-11  3.5684530255659995e-12  2.1594822499506677e-13  -1.8324557774631130e-13  4.7877435250049231e-14  -8.1909832968868384e-15  7.0302824611293949e-16  0.0000000000000000e+00  0.0000000000000000e+00  -3.1398352938419041e-08  1.5247935381305682e-07  -5.7476553213503251e-07  1.7296441757385646e-06  -3.7591718532630150e-06  3.4617146264807921e-06  1.3481187188536625e-05  -7.3212114846484986e-05  1.4408981488514354e-04  7.8091064875765670e-05  -1.0783098181185585e-03  1.3643467186249209e-03  4.7690006818999877e-03  -8.5201301260091275e-03  -3.0752168583683050e-02  -2.7941422925444156e-02  -5.1255864895571150e-03  4.5116472100043851e-03  6.0513266521773840e-04  -8.4767118926668526e-04  1.4364341496893144e-04  7.6313077541927875e-05  -5.2153334766196026e-05  1.3282165332142161e-05  3.9715537937733884e-07  -1.9256226006167595e-06  1.0209893451607828e-06  -3.6167542221829612e-07  1.0040273577483386e-07  -2.2809497269851736e-08  4.2259674778513735e-09  -5.9962396184131553e-10  4.8056621816621621e-11  4.9456442476197175e-12  -3.0489754448593076e-12  7.4134958996110944e-13  -1.1814693351663268e-13  1.0169135720438156e-14  1.0981722312089448e-15  0.0000000000000000e+00  0.0000000000000000e+00  -1.0822115331816137e-08  8.9302863245622159e-08  -5.0949187180669385e-07  2.3312892809367258e-06  -8.6885260593075353e-06  2.5456431243895474e-05  -5.1328027291887934e-05  2.7938288406356152e-05  2.6154997934445246e-04  -1.0739371006457819e-03  1.3643467186249202e-03  3.6276098013933670e-03  -1.4484925640453422e-02  -7.1273957253869509e-03  7.8961215563038575e-02  1.3327764637814812e-01  6.3800696652049863e-02  -1.1699279973017000e-02  -1.0620939648659925e-02  3.7197207978776768e-03  5.9973482062163248e-04  -7.6537960016137671e-04  2.3740116456973695e-04  -7.3018943310248454e-06  -2.7414963841295969e-05  1.5836196917448248e-05  -5.7509221104936112e-06  1.6039968175064550e-06  -3.6167542221829665e-07  6.5718000432511692e-08  -8.9499546620854168e-09  6.1745907397597746e-10  1.0331166060941674e-10  -5.0387604378952700e-11  1.1372644587189229e-11  -1.6660423532991903e-12  1.1291028458173851e-13  2.1367558720167370e-14  -9.3565255728520302e-15  0.0000000000000000e+00  0.0000000000000000e+00  2.9288555684441283e-09  7.2229809313369691e-09  -1.6534186730249502e-07  1.3355406992414348e-06  -7.7438768027475066e-06  3.5648003594466496e-05  -1.3175455728303657e-04  3.7359810333079346e-04  -6.7975321455620295e-04  6.7385868116074250e-06  4.7690006818999937e-03  -1.4484925640453426e-02  4.3312609419384560e-03  8.1850936772100438e-02  -9.4822222514147902e-02  -4.7528109288806858e-01  -4.3526024176011119e-01  -5.3275602595899370e-02  7.2441852355451017e-02  -2.6268996303692323e-03  -1.0278921569985123e-02  4.1428029356431915e-03  -3.6408470040650675e-04  -3.7595626093356706e-04  2.4494818609886260e-04  -9.1765841366134342e-05  2.5736948906823884e-05  -5.7509221104935875e-06  1.0209893451607800e-06  -1.3224468571407220e-07  7.3122746465715112e-09  2.0457292198312489e-09  -8.2629539940286205e-10  1.7218888766122421e-10  -2.2748755009717535e-11  9.6960675000607833e-13  4.4453877166434116e-13  -1.5362606386297236e-13  2.6083548208846633e-14  0.0000000000000000e+00  0.0000000000000000e+00  2.9672367764868497e-09  -1.7311655383605537e-08  5.4326621787907132e-08  6.1618887396284263e-08  -2.3131960208854011e-06  1.9858869204768496e-05  -1.1811961631082133e-04  5.4827694990541376e-04  -2.0068586075709270e-03  5.4561741646191528e-03  -8.5201301260091344e-03  -7.1273957253869735e-03  8.1850936772100522e-02  -1.6082498836145209e-01  -2.3575276211552429e-01  1.1211544491003731e+00  2.1271399306438128e+00  9.1800261933619653e-01  -2.6493441022490799e-01  -1.1013073990550218e-01  6.9618211059013432e-02  -1.0394554498930366e-02  -4.8048366283591111e-03  3.7701490920565529e-03  -1.4709482105716492e-03  4.1532171381725050e-04  -9.1765841366134762e-05  1.5836196917448275e-05  -1.9256226006167713e-06  7.2899264581012908e-08  3.9101580512169973e-08  -1.3423210544697718e-08  2.5602708935646798e-09  -2.9558687144702471e-10  2.0604182352905614e-12  8.6161745217254079e-12  -2.4131763496882583e-12  3.8522188830793455e-13  -2.3614187634597136e-14  0.0000000000000000e+00  0.0000000000000000e+00  -2.8164535868176089e-10  -3.9349772534716592e-09  4.4254069004230128e-08  -2.6522475697631012e-07  9.4113112956463442e-07  9.7008802164760470e-08  -3.1645236793412568e-05  2.9465010394503783e-04  -1.8106722600303576e-03  8.4997717042633886e-03  -3.0752168583683074e-02  7.8961215563038645e-02  -9.4822222514147902e-02  -2.3575276211552468e-01  1.2784872089963888e+00  -7.1871864642961902e-01  -7.4431088123144127e+00  -6.8787796565832302e+00  -2.6516154197998787e-01  1.0779765690603627e+00  -2.5207419028995398e-01  -5.2044497974352184e-02  5.7489266093251959e-02  -2.3722955476477917e-02  6.7542279360723904e-03  -1.4709482105716468e-03  2.4494818609886314e-04  -2.7414963841295932e-05  3.9715537937733572e-07  7.2830874689784099e-07  -2.1538959424337129e-07  3.7086240573262127e-08  -3.5322326758847747e-09  -1.7958136175770229e-10  1.5699638008626574e-10  -3.6657267567913870e-11  4.9769733010943747e-12  -1.9118871822225734e-13  -1.0393956828306272e-13  0.0000000000000000e+00  0.0000000000000000e+00  -5.6872801259015767e-10  3.2140440300200924e-09  -7.8637439084443572e-09  -3.7507296262473727e-08  5.8963700489551501e-07  -3.9863196786544539e-06  1.6106111605238914e-05  -1.3141619829455358e-05  -4.1717231808743529e-04  4.3537581254067988e-03  -2.7941422925444156e-02  1.3327764637814818e-01  -4.7528109288806902e-01  1.1211544491003733e+00  -7.1871864642961703e-01  -5.8118421981188710e+00  1.5163960950031216e+01  3.5027876981931485e+01  1.2580510598081487e+01  -5.6145438897423716e+00  -2.7762914136423167e-01  8.5944127792265268e-01  -3.8593382870618792e-01  1.1107118123004374e-01  -2.3722955476477910e-02  3.7701490920565499e-03  -3.7595626093356847e-04  -7.3018943310246057e-06  1.3282165332142114e-05  -3.3965788472510164e-06  5.1602945321194058e-07  -3.5625188370937681e-08  -6.1382537606892067e-09  2.7116584670641029e-09  -5.3084320043155572e-10  5.7439794495303248e-11  1.0936165480852756e-12  -2.0522755193160059e-12  4.7345060645933861e-13  0.0000000000000000e+00  0.0000000000000000e+00  9.5283798469679796e-11  5.4376344133800136e-10  -7.9193289438680649e-09  5.0080846780079976e-08  -1.7033988614500639e-07  -1.8790905343186316e-07  7.3484423956993582e-06  -5.8484419937578503e-05  2.7202545695017405e-04  -4.5946612867218251e-04  -5.1255864895571020e-03  6.3800696652049849e-02  -4.3526024176011130e-01  2.1271399306438137e+00  -7.4431088123144180e+00  1.5163960950031219e+01  6.2662169745040392e+00  -1.1928269102538357e+02  -1.1146300915726835e+02  9.7314472751718686e+00  1.2207234005282332e+01  -6.3629417109887365e+00  1.8584862730658207e+00  -3.8593382870618864e-01  5.7489266093252098e-02  -4.8048366283591389e-03  -3.6408470040650263e-04  2.3740116456973578e-04  -5.2153334766195972e-05  6.7091249967275881e-06  -2.0865250731119979e-07  -1.4585024749369161e-07  4.4322370318612274e-08  -7.1604370645324703e-09  5.2572478324106116e-10  8.0076906258693945e-11  -3.6787875560612287e-11  7.0950160786567187e-12  -6.3381480241010274e-13  0.0000000000000000e+00  0.0000000000000000e+00  8.7535033050967765e-11  -6.4383019457928713e-10  2.3371121222604459e-09  1.5072100242754696e-09  -9.0799516098384369e-08  7.2980839578892580e-07  -3.2435770877806685e-06  3.4493528563199862e-06  8.0227355011185843e-05  -8.2240553037017888e-04  4.5116472100043895e-03  -1.1699279973017045e-02  -5.3275602595899169e-02  9.1800261933619576e-01  -6.8787796565832302e+00  3.5027876981931513e+01  -1.1928269102538358e+02  1.6945293066033753e+02  6.1854061312959630e+02  1.4120295548240787e+02  -1.0737962526959240e+02  3.2066358158784830e+01  -6.3629417109887152e+00  8.5944127792264990e-01  -5.2044497974351768e-02  -1.0394554498930380e-02  4.1428029356431993e-03  -7.6537960016137422e-04  7.6313077541927522e-05  2.7859366328267302e-06  -2.9585597088214550e-06  6.7641003317990828e-07  -8.5587005132440300e-08  1.7661471688431360e-09  2.1140048800001511e-09  -5.9681161615537485e-10  8.9694400688583150e-11  -4.9191374511548569e-12  -1.4538047159760200e-12  0.0000000000000000e+00  0.0000000000000000e+00  -3.4038961070229405e-11  2.9393394192517753e-11  9.3708712123887968e-10  -8.9115934964269240e-09  4.4569559766998951e-08  -8.1766729310105303e-08  -8.0015668106083514e-07  9.6329772729045283e-06  -5.5746847077346903e-05  1.5209024788092259e-04  6.0513266521773678e-04  -1.0620939648659931e-02  7.2441852355451100e-02  -2.6493441022490855e-01  -2.6516154197998443e-01  1.2580510598081476e+01  -1.1146300915726830e+02  6.1854061312959618e+02  -2.0118785214979443e+03  -1.9078807861506548e+03  5.9267962208994493e+02  -1.0737962526959285e+02  1.2207234005282368e+01  -2.7762914136424099e-01  -2.5207419028995226e-01  6.9618211059013002e-02  -1.0278921569985089e-02  5.9973482062162251e-04  1.4364341496893264e-04  -5.3466723300296291e-05  9.3043906296451427e-06  -7.8408182343064104e-07  -7.6120474417953487e-08  4.2655984942299646e-08  -8.593062188499499