<?xml version="1.0"?>
<VTKFile type="UnstructuredGrid"  version="0.1"  >
<UnstructuredGrid>
<Piece  NumberOfPoints="1681" NumberOfCells="3200">
<Points>
<DataArray  type="Float64"  NumberOfComponents="3"  format="ascii">-2 -2 0  -1.9 -2 0  -1.8 -2 0  -1.7 -2 0  -1.6 -2 0  -1.5 -2 0  -1.4 -2 0  -1.3 -2 0  -1.2 -2 0  -1.1 -2 0  -1 -2 0  -0.8999999999999999 -2 0  -0.8 -2 0  -0.7 -2 0  -0.6000000000000001 -2 0  -0.5 -2 0  -0.3999999999999999 -2 0  -0.3 -2 0  -0.2 -2 0  -0.1000000000000001 -2 0  0 -2 0  0.1000000000000001 -2 0  0.2000000000000002 -2 0  0.2999999999999998 -2 0  0.3999999999999999 -2 0  0.5 -2 0  0.6000000000000001 -2 0  0.7000000000000002 -2 0  0.7999999999999998 -2 0  0.8999999999999999 -2 0  1 -2 0  1.1 -2 0  1.2 -2 0  1.3 -2 0  1.4 -2 0  1.5 -2 0  1.6 -2 0  1.7 -2 0  1.8 -2 0  1.9 -2 0  2 -2 0  -2 -1.9 0  -1.9 -1.9 0  -1.8 -1.9 0  -1.7 -1.9 0  -1.6 -1.9 0  -1.5 -1.9 0  -1.4 -1.9 0  -1.3 -1.9 0  -1.2 -1.9 0  -1.1 -1.9 0  -1 -1.9 0  -0.8999999999999999 -1.9 0  -0.8 -1.9 0  -0.7 -1.9 0  -0.6000000000000001 -1.9 0  -0.5 -1.9 0  -0.3999999999999999 -1.9 0  -0.3 -1.9 0  -0.2 -1.9 0  -0.1000000000000001 -1.9 0  0 -1.9 0  0.1000000000000001 -1.9 0  0.2000000000000002 -1.9 0  0.2999999999999998 -1.9 0  0.3999999999999999 -1.9 0  0.5 -1.9 0  0.6000000000000001 -1.9 0  0.7000000000000002 -1.9 0  0.7999999999999998 -1.9 0  0.8999999999999999 -1.9 0  1 -1.9 0  1.1 -1.9 0  1.2 -1.9 0  1.3 -1.9 0  1.4 -1.9 0  1.5 -1.9 0  1.6 -1.9 0  1.7 -1.9 0  1.8 -1.9 0  1.9 -1.9 0  2 -1.9 0  -2 -1.8 0  -1.9 -1.8 0  -1.8 -1.8 0  -1.7 -1.8 0  -1.6 -1.8 0  -1.5 -1.8 0  -1.4 -1.8 0  -1.3 -1.8 0  -1.2 -1.8 0  -1.1 -1.8 0  -1 -1.8 0  -0.8999999999999999 -1.8 0  -0.8 -1.8 0  -0.7 -1.8 0  -0.6000000000000001 -1.8 0  -0.5 -1.8 0  -0.3999999999999999 -1.8 0  -0.3 -1.8 0  -0.2 -1.8 0  -0.1000000000000001 -1.8 0  0 -1.8 0  0.1000000000000001 -1.8 0  0.2000000000000002 -1.8 0  0.2999999999999998 -1.8 0  0.3999999999999999 -1.8 0  0.5 -1.8 0  0.6000000000000001 -1.8 0  0.7000000000000002 -1.8 0  0.7999999999999998 -1.8 0  0.8999999999999999 -1.8 0  1 -1.8 0  1.1 -1.8 0  1.2 -1.8 0  1.3 -1.8 0  1.4 -1.8 0  1.5 -1.8 0  1.6 -1.8 0  1.7 -1.8 0  1.8 -1.8 0  1.9 -1.8 0  2 -1.8 0  -2 -1.7 0  -1.9 -1.7 0  -1.8 -1.7 0  -1.7 -1.7 0  -1.6 -1.7 0  -1.5 -1.7 0  -1.4 -1.7 0  -1.3 -1.7 0  -1.2 -1.7 0  -1.1 -1.7 0  -1 -1.7 0  -0.8999999999999999 -1.7 0  -0.8 -1.7 0  -0.7 -1.7 0  -0.6000000000000001 -1.7 0  -0.5 -1.7 0  -0.3999999999999999 -1.7 0  -0.3 -1.7 0  -0.2 -1.7 0  -0.1000000000000001 -1.7 0  0 -1.7 0  0.1000000000000001 -1.7 0  0.2000000000000002 -1.7 0  0.2999999999999998 -1.7 0  0.3999999999999999 -1.7 0  0.5 -1.7 0  0.6000000000000001 -1.7 0  0.7000000000000002 -1.7 0  0.7999999999999998 -1.7 0  0.8999999999999999 -1.7 0  1 -1.7 0  1.1 -1.7 0  1.2 -1.7 0  1.3 -1.7 0  1.4 -1.7 0  1.5 -1.7 0  1.6 -1.7 0  1.7 -1.7 0  1.8 -1.7 0  1.9 -1.7 0  2 -1.7 0  -2 -1.6 0  -1.9 -1.6 0  -1.8 -1.6 0  -1.7 -1.6 0  -1.6 -1.6 0  -1.5 -1.6 0  -1.4 -1.6 0  -1.3 -1.6 0  -1.2 -1.6 0  -1.1 -1.6 0  -1 -1.6 0  -0.8999999999999999 -1.6 0  -0.8 -1.6 0  -0.7 -1.6 0  -0.6000000000000001 -1.6 0  -0.5 -1.6 0  -0.3999999999999999 -1.6 0  -0.3 -1.6 0  -0.2 -1.6 0  -0.1000000000000001 -1.6 0  0 -1.6 0  0.1000000000000001 -1.6 0  0.2000000000000002 -1.6 0  0.2999999999999998 -1.6 0  0.3999999999999999 -1.6 0  0.5 -1.6 0  0.6000000000000001 -1.6 0  0.7000000000000002 -1.6 0  0.7999999999999998 -1.6 0  0.8999999999999999 -1.6 0  1 -1.6 0  1.1 -1.6 0  1.2 -1.6 0  1.3 -1.6 0  1.4 -1.6 0  1.5 -1.6 0  1.6 -1.6 0  1.7 -1.6 0  1.8 -1.6 0  1.9 -1.6 0  2 -1.6 0  -2 -1.5 0  -1.9 -1.5 0  -1.8 -1.5 0  -1.7 -1.5 0  -1.6 -1.5 0  -1.5 -1.5 0  -1.4 -1.5 0  -1.3 -1.5 0  -1.2 -1.5 0  -1.1 -1.5 0  -1 -1.5 0  -0.8999999999999999 -1.5 0  -0.8 -1.5 0  -0.7 -1.5 0  -0.6000000000000001 -1.5 0  -0.5 -1.5 0  -0.3999999999999999 -1.5 0  -0.3 -1.5 0  -0.2 -1.5 0  -0.1000000000000001 -1.5 0  0 -1.5 0  0.1000000000000001 -1.5 0  0.2000000000000002 -1.5 0  0.2999999999999998 -1.5 0  0.3999999999999999 -1.5 0  0.5 -1.5 0  0.6000000000000001 -1.5 0  0.7000000000000002 -1.5 0  0.7999999999999998 -1.5 0  0.8999999999999999 -1.5 0  1 -1.5 0  1.1 -1.5 0  1.2 -1.5 0  1.3 -1.5 0  1.4 -1.5 0  1.5 -1.5 0  1.6 -1.5 0  1.7 -1.5 0  1.8 -1.5 0  1.9 -1.5 0  2 -1.5 0  -2 -1.4 0  -1.9 -1.4 0  -1.8 -1.4 0  -1.7 -1.4 0  -1.6 -1.4 0  -1.5 -1.4 0  -1.4 -1.4 0  -1.3 -1.4 0  -1.2 -1.4 0  -1.1 -1.4 0  -1 -1.4 0  -0.8999999999999999 -1.4 0  -0.8 -1.4 0  -0.7 -1.4 0  -0.6000000000000001 -1.4 0  -0.5 -1.4 0  -0.3999999999999999 -1.4 0  -0.3 -1.4 0  -0.2 -1.4 0  -0.1000000000000001 -1.4 0  0 -1.4 0  0.1000000000000001 -1.4 0  0.2000000000000002 -1.4 0  0.2999999999999998 -1.4 0  0.3999999999999999 -1.4 0  0.5 -1.4 0  0.6000000000000001 -1.4 0  0.7000000000000002 -1.4 0  0.7999999999999998 -1.4 0  0.8999999999999999 -1.4 0  1 -1.4 0  1.1 -1.4 0  1.2 -1.4 0  1.3 -1.4 0  1.4 -1.4 0  1.5 -1.4 0  1.6 -1.4 0  1.7 -1.4 0  1.8 -1.4 0  1.9 -1.4 0  2 -1.4 0  -2 -1.3 0  -1.9 -1.3 0  -1.8 -1.3 0  -1.7 -1.3 0  -1.6 -1.3 0  -1.5 -1.3 0  -1.4 -1.3 0  -1.3 -1.3 0  -1.2 -1.3 0  -1.1 -1.3 0  -1 -1.3 0  -0.8999999999999999 -1.3 0  -0.8 -1.3 0  -0.7 -1.3 0  -0.6000000000000001 -1.3 0  -0.5 -1.3 0  -0.3999999999999999 -1.3 0  -0.3 -1.3 0  -0.2 -1.3 0  -0.1000000000000001 -1.3 0  0 -1.3 0  0.1000000000000001 -1.3 0  0.2000000000000002 -1.3 0  0.2999999999999998 -1.3 0  0.3999999999999999 -1.3 0  0.5 -1.3 0  0.6000000000000001 -1.3 0  0.7000000000000002 -1.3 0  0.7999999999999998 -1.3 0  0.8999999999999999 -1.3 0  1 -1.3 0  1.1 -1.3 0  1.2 -1.3 0  1.3 -1.3 0  1.4 -1.3 0  1.5 -1.3 0  1.6 -1.3 0  1.7 -1.3 0  1.8 -1.3 0  1.9 -1.3 0  2 -1.3 0  -2 -1.2 0  -1.9 -1.2 0  -1.8 -1.2 0  -1.7 -1.2 0  -1.6 -1.2 0  -1.5 -1.2 0  -1.4 -1.2 0  -1.3 -1.2 0  -1.2 -1.2 0  -1.1 -1.2 0  -1 -1.2 0  -0.8999999999999999 -1.2 0  -0.8 -1.2 0  -0.7 -1.2 0  -0.6000000000000001 -1.2 0  -0.5 -1.2 0  -0.3999999999999999 -1.2 0  -0.3 -1.2 0  -0.2 -1.2 0  -0.1000000000000001 -1.2 0  0 -1.2 0  0.1000000000000001 -1.2 0  0.2000000000000002 -1.2 0  0.2999999999999998 -1.2 0  0.3999999999999999 -1.2 0  0.5 -1.2 0  0.6000000000000001 -1.2 0  0.7000000000000002 -1.2 0  0.7999999999999998 -1.2 0  0.8999999999999999 -1.2 0  1 -1.2 0  1.1 -1.2 0  1.2 -1.2 0  1.3 -1.2 0  1.4 -1.2 0  1.5 -1.2 0  1.6 -1.2 0  1.7 -1.2 0  1.8 -1.2 0  1.9 -1.2 0  2 -1.2 0  -2 -1.1 0  -1.9 -1.1 0  -1.8 -1.1 0  -1.7 -1.1 0  -1.6 -1.1 0  -1.5 -1.1 0  -1.4 -1.1 0  -1.3 -1.1 0  -1.2 -1.1 0  -1.1 -1.1 0  -1 -1.1 0  -0.8999999999999999 -1.1 0  -0.8 -1.1 0  -0.7 -1.1 0  -0.6000000000000001 -1.1 0  -0.5 -1.1 0  -0.3999999999999999 -1.1 0  -0.3 -1.1 0  -0.2 -1.1 0  -0.1000000000000001 -1.1 0  0 -1.1 0  0.1000000000000001 -1.1 0  0.2000000000000002 -1.1 0  0.2999999999999998 -1.1 0  0.3999999999999999 -1.1 0  0.5 -1.1 0  0.6000000000000001 -1.1 0  0.7000000000000002 -1.1 0  0.7999999999999998 -1.1 0  0.8999999999999999 -1.1 0  1 -1.1 0  1.1 -1.1 0  1.2 -1.1 0  1.3 -1.1 0  1.4 -1.1 0  1.5 -1.1 0  1.6 -1.1 0  1.7 -1.1 0  1.8 -1.1 0  1.9 -1.1 0  2 -1.1 0  -2 -1 0  -1.9 -1 0  -1.8 -1 0  -1.7 -1 0  -1.6 -1 0  -1.5 -1 0  -1.4 -1 0  -1.3 -1 0  -1.2 -1 0  -1.1 -1 0  -1 -1 0  -0.8999999999999999 -1 0  -0.8 -1 0  -0.7 -1 0  -0.6000000000000001 -1 0  -0.5 -1 0  -0.3999999999999999 -1 0  -0.3 -1 0  -0.2 -1 0  -0.1000000000000001 -1 0  0 -1 0  0.1000000000000001 -1 0  0.2000000000000002 -1 0  0.2999999999999998 -1 0  0.3999999999999999 -1 0  0.5 -1 0  0.6000000000000001 -1 0  0.7000000000000002 -1 0  0.7999999999999998 -1 0  0.8999999999999999 -1 0  1 -1 0  1.1 -1 0  1.2 -1 0  1.3 -1 0  1.4 -1 0  1.5 -1 0  1.6 -1 0  1.7 -1 0  1.8 -1 0  1.9 -1 0  2 -1 0  -2 -0.8999999999999999 0  -1.9 -0.8999999999999999 0  -1.8 -0.8999999999999999 0  -1.7 -0.8999999999999999 0  -1.6 -0.8999999999999999 0  -1.5 -0.8999999999999999 0  -1.4 -0.8999999999999999 0  -1.3 -0.8999999999999999 0  -1.2 -0.8999999999999999 0  -1.1 -0.8999999999999999 0  -1 -0.8999999999999999 0  -0.8999999999999999 -0.8999999999999999 0  -0.8 -0.8999999999999999 0  -0.7 -0.8999999999999999 0  -0.6000000000000001 -0.8999999999999999 0  -0.5 -0.8999999999999999 0  -0.3999999999999999 -0.8999999999999999 0  -0.3 -0.8999999999999999 0  -0.2 -0.8999999999999999 0  -0.1000000000000001 -0.8999999999999999 0  0 -0.8999999999999999 0  0.1000000000000001 -0.8999999999999999 0  0.2000000000000002 -0.8999999999999999 0  0.2999999999999998 -0.8999999999999999 0  0.3999999999999999 -0.8999999999999999 0  0.5 -0.8999999999999999 0  0.6000000000000001 -0.8999999999999999 0  0.7000000000000002 -0.8999999999999999 0  0.7999999999999998 -0.8999999999999999 0  0.8999999999999999 -0.8999999999999999 0  1 -0.8999999999999999 0  1.1 -0.8999999999999999 0  1.2 -0.8999999999999999 0  1.3 -0.8999999999999999 0  1.4 -0.8999999999999999 0  1.5 -0.8999999999999999 0  1.6 -0.8999999999999999 0  1.7 -0.8999999999999999 0  1.8 -0.8999999999999999 0  1.9 -0.8999999999999999 0  2 -0.8999999999999999 0  -2 -0.8 0  -1.9 -0.8 0  -1.8 -0.8 0  -1.7 -0.8 0  -1.6 -0.8 0  -1.5 -0.8 0  -1.4 -0.8 0  -1.3 -0.8 0  -1.2 -0.8 0  -1.1 -0.8 0  -1 -0.8 0  -0.8999999999999999 -0.8 0  -0.8 -0.8 0  -0.7 -0.8 0  -0.6000000000000001 -0.8 0  -0.5 -0.8 0  -0.3999999999999999 -0.8 0  -0.3 -0.8 0  -0.2 -0.8 0  -0.1000000000000001 -0.8 0  0 -0.8 0  0.1000000000000001 -0.8 0  0.2000000000000002 -0.8 0  0.2999999999999998 -0.8 0  0.3999999999999999 -0.8 0  0.5 -0.8 0  0.6000000000000001 -0.8 0  0.7000000000000002 -0.8 0  0.7999999999999998 -0.8 0  0.8999999999999999 -0.8 0  1 -0.8 0  1.1 -0.8 0  1.2 -0.8 0  1.3 -0.8 0  1.4 -0.8 0  1.5 -0.8 0  1.6 -0.8 0  1.7 -0.8 0  1.8 -0.8 0  1.9 -0.8 0  2 -0.8 0  -2 -0.7 0  -1.9 -0.7 0  -1.8 -0.7 0  -1.7 -0.7 0  -1.6 -0.7 0  -1.5 -0.7 0  -1.4 -0.7 0  -1.3 -0.7 0  -1.2 -0.7 0  -1.1 -0.7 0  -1 -0.7 0  -0.8999999999999999 -0.7 0  -0.8 -0.7 0  -0.7 -0.7 0  -0.6000000000000001 -0.7 0  -0.5 -0.7 0  -0.3999999999999999 -0.7 0  -0.3 -0.7 0  -0.2 -0.7 0  -0.1000000000000001 -0.7 0  0 -0.7 0  0.1000000000000001 -0.7 0  0.2000000000000002 -0.7 0  0.2999999999999998 -0.7 0  0.3999999999999999 -0.7 0  0.5 -0.7 0  0.600000000000000
[...]
<PointData  Scalars="f_1726"> 
<DataArray  type="Float64"  Name="f_1726"  format="ascii">0.0000000000000000e+00  0.0000000000000000e+00  0.0000000000000000e+00  0.0000000000000000e+00  0.0000000000000000e+00  0.0000000000000000e+00  0.0000000000000000e+00  0.0000000000000000e+00  0.0000000000000000e+00  0.0000000000000000e+00  0.0000000000000000e+00  0.0000000000000000e+00  0.0000000000000000e+00  0.0000000000000000e+00  0.0000000000000000e+00  0.0000000000000000e+00  0.0000000000000000e+00  0.0000000000000000e+00  0.0000000000000000e+00  0.0000000000000000e+00  0.0000000000000000e+00  0.0000000000000000e+00  0.0000000000000000e+00  0.0000000000000000e+00  0.0000000000000000e+00  0.0000000000000000e+00  0.0000000000000000e+00  0.0000000000000000e+00  0.0000000000000000e+00  0.0000000000000000e+00  0.0000000000000000e+00  0.0000000000000000e+00  0.0000000000000000e+00  0.0000000000000000e+00  0.0000000000000000e+00  0.0000000000000000e+00  0.0000000000000000e+00  0.0000000000000000e+00  0.0000000000000000e+00  0.0000000000000000e+00  0.0000000000000000e+00  0.0000000000000000e+00  -1.9004171652990613e-13  -2.2146686709368280e-13  1.4553217784940490e-12  -3.5069128555948212e-13  -7.3706964848857777e-12  3.9711159800474374e-12  3.6265931729274059e-11  4.9895623965795191e-12  -1.5053329758130679e-10  -3.0036910116305377e-10  -2.6476149552129632e-10  -9.1255724323349209e-11  2.4697097391955941e-11  2.5020740675450374e-11  -2.3749285995181054e-12  -4.7957063051539340e-12  8.0346510631498074e-13  7.3812490440293961e-13  -2.8702799336705869e-13  -5.2439112936711763e-14  6.2491723788527987e-14  -1.2258971403775301e-14  -5.3445400559308116e-15  3.9922951011949096e-15  -8.7645347500980114e-16  -1.9912278984565333e-16  2.1994527056309293e-16  -7.8897377464675722e-17  9.2601584180254656e-18  5.9281711432328314e-18  -4.4183909644857364e-18  1.6558078226420898e-18  -3.6617538973618384e-19  3.0317429865303309e-21  4.2933733520374174e-20  -2.5826280152932460e-20  1.0507920462463057e-20  -3.4832741504952405e-21  1.1041751392092749e-21  0.0000000000000000e+00  0.0000000000000000e+00  -2.2146686709368311e-13  1.5927010273247732e-12  -1.4168644299969080e-12  -6.9772173792130281e-12  1.4652044990660643e-11  2.7384366892906872e-11  -7.8894443871066678e-11  -1.5411174965355074e-10  2.2979162017334929e-10  9.8488406223292909e-10  1.2857573080614755e-09  7.5303184449251692e-10  6.0906609886616719e-11  -1.4597771349032683e-10  -3.3181054576804101e-11  2.7101902629363211e-11  4.5851966254668489e-12  -5.4289932186220624e-12  2.4785500755791493e-13  8.5107674435298133e-13  -2.8681688935854034e-13  -4.1479825097735420e-14  5.9827567115288953e-14  -1.7305478946030681e-14  -1.6121677166507314e-15  3.2483208102024151e-15  -1.2954267537276338e-15  1.8017845756069435e-16  8.5749580138257712e-17  -6.9069132120626229e-17  2.6020136330488879e-17  -5.5554391348201474e-18  -1.0373855019878551e-19  7.3254540021850788e-19  -4.1557889876018245e-19  1.6246778370409660e-19  -5.1375320020378951e-20  1.3955854863818558e-20  -3.4832741504952450e-21  0.0000000000000000e+00  0.0000000000000000e+00  1.4553217784940476e-12  -1.4168644299969052e-12  -6.3789258543419488e-12  1.8891553993578818e-11  1.0422486611667055e-11  -1.1207499550854440e-10  6.9542611569316525e-12  5.5986485468908471e-10  2.1261893056414778e-10  -2.2773864850528259e-09  -4.8466167050425887e-09  -4.2962071991498841e-09  -1.3942183574135128e-09  4.5810038696604108e-10  3.7316522670607841e-10  -6.6309739293638260e-11  -6.6778451048559035e-11  1.9707317192854686e-11  7.9018344732780893e-12  -5.2007808561300736e-12  2.1185471326820496e-13  7.5633342018835826e-13  -3.1020776693547923e-13  9.2217433623279104e-15  4.1967516479342313e-14  -2.0348716397741555e-14  3.7485007647976390e-15  9.5209757862863796e-16  -9.9625476758189135e-16  4.0371867223062310e-16  -9.2331132887117657e-17  1.0614667680135488e-18  1.0643016269767637e-17  -6.3112566264924396e-18  2.5057136028898479e-18  -8.0003958729705632e-19  2.1679891385418868e-19  -5.1375320020378740e-20  1.0507920462463026e-20  0.0000000000000000e+00  0.0000000000000000e+00  -3.5069128555948076e-13  -6.9772173792130208e-12  1.8891553993578801e-11  3.5454274478991179e-12  -1.1479286371193629e-10  1.3071613174496456e-10  5.0103399850735621e-10  -9.1377597657565321e-10  -2.5246133683532575e-09  2.7448569717883044e-09  1.4584942706593455e-08  1.9658217032089121e-08  1.1261729351034059e-08  5.1959122860347651e-10  -2.2364645509923340e-09  -3.1627416479104345e-10  4.2229858096290633e-10  1.2709302964856726e-11  -7.5145560221562708e-11  1.5649200053121852e-11  7.7053768274576823e-12  -5.0325167166470936e-12  6.7523546535552417e-13  4.8435170860201600e-13  -3.0910643631658858e-13  7.2654487849048675e-14  8.1760509445398936e-15  -1.4048630701312322e-14  6.2513096316601541e-15  -1.5451884787374526e-15  6.5250351797601848e-17  1.5296655707686142e-16  -9.6267624235682313e-17  3.8992697628871227e-17  -1.2559124610362228e-17  3.4159070813201471e-18  -8.0003958729706026e-19  1.6246778370409686e-19  -2.5826280152932568e-20  0.0000000000000000e+00  0.0000000000000000e+00  -7.3706964848857842e-12  1.4652044990660637e-11  1.0422486611667037e-11  -1.1479286371193620e-10  1.7072945072681250e-10  3.7768968028806765e-10  -1.4427053578785442e-09  -8.0200646205073961e-10  7.7831040633773901e-09  5.3587690901532679e-09  -3.1698604182948963e-08  -7.3264580401708340e-08  -6.5298979454408875e-08  -1.9505648564582598e-08  7.9359349146078291e-09  4.9720179761344817e-09  -1.4363633369919686e-09  -7.6565212582863355e-10  3.7582555116123829e-10  4.0460199370188624e-11  -7.2459596864738710e-11  1.7826001722634980e-11  4.4330885800445315e-12  -4.4762487990762224e-12  1.3238463961658531e-12  1.7374141071821136e-14  -1.9182517023848999e-13  9.5897972573334803e-14  -2.5709988679084796e-14  1.8209482235262024e-15  2.1678181846169537e-15  -1.4658180013991136e-15  6.0707639643383265e-16  -1.9729191383269032e-16  5.3778695967611033e-17  -1.2559124610362212e-17  2.5057136028898549e-18  -4.1557889876018187e-19  4.2933733520374156e-20  0.0000000000000000e+00  0.0000000000000000e+00  3.9711159800474519e-12  2.7384366892906891e-11  -1.1207499550854439e-10  1.3071613174496458e-10  3.7768968028806688e-10  -1.5584294900536856e-09  4.2203060784559979e-10  8.2148552686191412e-09  -8.8249881083728884e-09  -4.0129767208129029e-08  2.9190344581850168e-08  2.1465720893027752e-07  3.0059598229660258e-07  1.6745667902798802e-07  8.1801091892458571e-10  -3.3613991212102985e-08  -1.5845124776508900e-09  6.1539903921725614e-09  -6.8948462291915645e-10  -8.6763422976044669e-10  3.5968964322450830e-10  1.4892748248633215e-11  -6.0379218919856937e-11  2.2865618221788947e-11  -1.5142905744123459e-12  -2.4924881344657021e-12  1.4519547410256540e-12  -4.2488526443637924e-13  4.1703339340258844e-14  3.0090398741594675e-14  -2.2248461334978205e-14  9.4513795271035988e-15  -3.1023076285093418e-15  8.4756050968560049e-16  -1.9729191383269035e-16  3.8992697628871184e-17  -6.3112566264924581e-18  7.3254540021850817e-19  3.0317429865300255e-21  0.0000000000000000e+00  0.0000000000000000e+00  3.6265931729274072e-11  -7.8894443871066781e-11  6.9542611569317115e-12  5.0103399850735632e-10  -1.4427053578785440e-09  4.2203060784560372e-10  7.8154016694224446e-09  -1.5598765427709208e-08  -2.4772591377492060e-08  1.0224820096130865e-07  1.1367791452118158e-07  -4.3281522742964638e-07  -1.1109988379460352e-06  -9.9602441969458950e-07  -2.6684330340454282e-07  1.3581216199459236e-07  6.1964543243822202e-08  -2.7350935327203825e-08  -6.7471908461097344e-09  6.0377568766541593e-09  -6.4187349846710483e-10  -7.2169847636583435e-10  3.7374116641149455e-10  -5.1759824751212286e-11  -2.9784976544171955e-11  2.1589067173342141e-11  -6.9676013298321883e-12  8.7115874585474943e-13  4.0522963375895802e-13  -3.3630544533925483e-13  1.4713547891765969e-13  -4.8840087963305049e-14  1.3376713789854983e-14  -3.1023076285093469e-15  6.0707639643383403e-16  -9.6267624235682486e-17  1.0643016269767698e-17  -1.0373855019879184e-19  -3.6617538973618283e-19  0.0000000000000000e+00  0.0000000000000000e+00  4.9895623965794730e-12  -1.5411174965355074e-10  5.5986485468908502e-10  -9.1377597657565404e-10  -8.0200646205073961e-10  8.2148552686191379e-09  -1.5598765427709225e-08  -1.6828963176276198e-08  1.1984657249698955e-07  -4.8347485362917389e-08  -6.1734923023029901e-07  2.3558506509178055e-07  3.1503051372082909e-06  4.6232560510902151e-06  2.4845889951296806e-06  -1.1081456809033742e-07  -4.9316034244656310e-07  2.9086105969032208e-08  8.1228511383988456e-08  -2.2310255275185078e-08  -6.6116422281675769e-09  5.7037173994942306e-09  -1.2298584490822413e-09  -3.0040359664140893e-10  3.1272368129300452e-10  -1.1318903591795717e-10  1.7250278342192704e-11  5.2066230406958592e-12  -5.0562313634373864e-12  2.2901643877057403e-12  -7.6995531601425412e-13  2.1146930161456677e-13  -4.8840087963304854e-14  9.4513795271035720e-15  -1.4658180013991083e-15  1.5296655707686049e-16  1.0614667680136786e-18  -5.5554391348201420e-18  1.6558078226420860e-18  0.0000000000000000e+00  0.0000000000000000e+00  -1.5053329758130687e-10  2.2979162017334957e-10  2.1261893056414742e-10  -2.5246133683532579e-09  7.7831040633773950e-09  -8.8249881083728867e-09  -2.4772591377492047e-08  1.1984657249698968e-07  -1.0706289274501585e-07  -5.2676068357201625e-07  1.2150138879322433e-06  2.2054775873313076e-06  -5.7319082317561421e-06  -1.6922508237370553e-05  -1.5268198825740736e-05  -3.5177376037380396e-06  2.2938103455059257e-06  6.7650409994878675e-07  -4.7007620532653706e-07  -1.3821435228370331e-08  7.8457758050260946e-08  -2.4947572716088419e-08  -1.7594282728246579e-09  4.3513342892026901e-09  -1.8162376607284418e-09  3.2971770697504218e-10  6.1659564591996482e-11  -7.5469034500917350e-11  3.5634782233791496e-11  -1.2157718118691397e-11  3.3495682496597182e-12  -7.6995531601425785e-13  1.4713547891765997e-13  -2.2248461334978309e-14  2.1678181846169750e-15  6.5250351797597620e-17  -9.2331132887117250e-17  2.6020136330488737e-17  -4.4183909644857202e-18  0.0000000000000000e+00  0.0000000000000000e+00  -3.0036910116305362e-10  9.8488406223292889e-10  -2.2773864850528276e-09  2.7448569717883094e-09  5.3587690901532654e-09  -4.0129767208129056e-08  1.0224820096130864e-07  -4.8347485362917601e-08  -5.2676068357201668e-07  1.4614672422613233e-06  6.5849018144068423e-07  -9.0557996281029921e-06  5.6822035392767198e-08  4.6008299686370803e-05  7.1672940055934097e-05  3.6712356048786459e-05  -3.8743732707003611e-06  -6.9348006429778272e-06  1.2824762356845204e-06  8.8218448119411595e-07  -4.5084943306973712e-07  2.3491956752680957e-08  5.6573603438905464e-08  -2.8641097735856656e-08  6.1413448472314249e-09  6.1471117133836891e-10  -1.1151317660857109e-09  5.5415633142625114e-10  -1.9233736945053096e-10  5.3178252519069990e-11  -1.2157718118691386e-11  2.2901643877057455e-12  -3.3630544533925443e-13  3.0090398741594637e-14  1.8209482235262154e-15  -1.5451884787374528e-15  4.0371867223062439e-16  -6.9069132120626180e-17  5.9281711432328345e-18  0.0000000000000000e+00  0.0000000000000000e+00  -2.6476149552129596e-10  1.2857573080614744e-09  -4.8466167050425870e-09  1.4584942706593448e-08  -3.1698604182948976e-08  2.9190344581850207e-08  1.1367791452118158e-07  -6.1734923023029891e-07  1.2150138879322443e-06  6.5849018144068550e-07  -9.0926718557594966e-06  1.1504631416213880e-05  4.0213821252290751e-05  -7.1844609130373378e-05  -2.5931265123070840e-04  -2.3561149641329303e-04  -4.3220672977989074e-05  3.8043730030298516e-05  5.1026826071438808e-06  -7.1478491951706715e-06  1.2112496933692787e-06  6.4349759292981561e-07  -4.3977449824207681e-07  1.1199969514312160e-07  3.3489480293601227e-09  -1.6237498844248996e-08  8.6093263065820128e-09  -3.0497690712509668e-09  8.4662971112882355e-10  -1.9233736945053093e-10  3.5634782233791470e-11  -5.0562313634374009e-12  4.0522963375895898e-13  4.1703339340258522e-14  -2.5709988679084707e-14  6.2513096316601257e-15  -9.9625476758188958e-16  8.5749580138256837e-17  9.2601584180255857e-18  0.0000000000000000e+00  0.0000000000000000e+00  -9.1255724323349054e-11  7.5303184449251589e-10  -4.2962071991498799e-09  1.9658217032089115e-08  -7.3264580401708313e-08  2.1465720893027755e-07  -4.3281522742964638e-07  2.3558506509178086e-07  2.2054775873313072e-06  -9.0557996281030006e-06  1.1504631416213879e-05  3.0589228615537045e-05  -1.2214177548111596e-04  -6.0100603210830634e-05  6.6582758534028343e-04  1.1238420385885923e-03  5.3798897967760151e-04  -9.8652272246682368e-05  -8.9559343152036667e-05  3.1365939586044780e-05  5.0571661620405588e-06  -6.4539387775421685e-06  2.0018466412316759e-06  -6.1572034272379215e-08  -2.3117221596048641e-07  1.3353615036612351e-07  -4.8493713717629271e-08  1.3525441829618205e-08  -3.0497690712509706e-09  5.5415633142625218e-10  -7.5469034500917518e-11  5.2066230406959028e-12  8.7115874585474378e-13  -4.2488526443637873e-13  9.5897972573334727e-14  -1.4048630701312304e-14  9.5209757862863915e-16  1.8017845756069428e-16  -7.8897377464675685e-17  0.0000000000000000e+00  0.0000000000000000e+00  2.4697097391956015e-11  6.0906609886616150e-11  -1.3942183574135091e-09  1.1261729351034039e-08  -6.5298979454408822e-08  3.0059598229660242e-07  -1.1109988379460350e-06  3.1503051372082909e-06  -5.7319082317561438e-06  5.6822035392769110e-08  4.0213821252290791e-05  -1.2214177548111599e-04  3.6522652214582770e-05  6.9019468862278313e-04  -7.9957294227303631e-04  -4.0077303797699517e-03  -3.6702610731010701e-03  -4.4923783886858783e-04  6.1085411727102750e-04  -2.2150903140842375e-05  -8.6675331427508951e-05  3.4933510781350429e-05  -3.0700849170371567e-06  -3.1701899169867057e-06  2.0654856706642609e-06  -7.7380050620868980e-07  2.1702262841908736e-07  -4.8493713717629099e-08  8.6093263065819863e-09  -1.1151317660857059e-09  6.1659564591995720e-11  1.7250278342192810e-11  -6.9676013298321745e-12  1.4519547410256496e-12  -1.9182517023848896e-13  8.1760509445397074e-15  3.7485007647976737e-15  -1.2954267537276348e-15  2.1994527056309297e-16  0.0000000000000000e+00  0.0000000000000000e+00  2.5020740675450361e-11  -1.4597771349032686e-10  4.5810038696604191e-10  5.1959122860346979e-10  -1.9505648564582551e-08  1.6745667902798789e-07  -9.9602441969458929e-07  4.6232560510902134e-06  -1.6922508237370553e-05  4.6008299686370830e-05  -7.1844609130373418e-05  -6.0100603210830783e-05  6.9019468862278302e-04  -1.3561305116636185e-03  -1.9879467561054009e-03  9.4539522259767337e-03  1.7936760897136392e-02  7.7409075203597735e-03  -2.2340162493163919e-03  -9.2865952100848633e-04  5.8704422208554657e-04  -8.7650387261141235e-05  -4.0516002032172698e-05  3.1791167960589529e-05  -1.2403531128818941e-05  3.5021326847426576e-06  -7.7380050620869308e-07  1.3353615036612369e-07  -1.6237498844249076e-08  6.1471117133838504e-10  3.2971770697503877e-10  -1.1318903591795693e-10  2.1589067173342028e-11  -2.4924881344656884e-12  1.7374141071819555e-14  7.2654487849048687e-14  -2.0348716397741599e-14  3.2483208102024073e-15  -1.9912278984565242e-16  0.0000000000000000e+00  0.0000000000000000e+00  -2.3749285995181167e-12  -3.3181054576804030e-11  3.7316522670607820e-10  -2.2364645509923340e-09  7.9359349146078423e-09  8.1801091892446525e-10  -2.6684330340454218e-07  2.4845889951296777e-06  -1.5268198825740723e-05  7.1672940055934070e-05  -2.5931265123070845e-04  6.6582758534028386e-04  -7.9957294227303631e-04  -1.9879467561054005e-03  1.0780635090083025e-02  -6.0604778875171395e-03  -6.2762802378236102e-02  -5.8004188716853936e-02  -2.2359315008352487e-03  9.0898617873714470e-03  -2.1255745399888638e-03  -4.3885674972727988e-04  4.8476886979147187e-04  -2.0003995695111991e-04  5.6953926626454598e-05  -1.2403531128818923e-05  2.0654856706642647e-06  -2.3117221596048588e-07  3.3489480293600602e-09  6.1413448472314299e-09  -1.8162376607284399e-09  3.1272368129300524e-10  -2.9784976544171903e-11  -1.5142905744123485e-12  1.3238463961658525e-12  -3.0910643631658813e-13  4.1967516479342370e-14  -1.6121677166507265e-15  -8.7645347500980075e-16  0.0000000000000000e+00  0.0000000000000000e+00  -4.7957063051539308e-12  2.7101902629363220e-11  -6.6309739293638467e-11  -3.1627416479104180e-10  4.9720179761344759e-09  -3.3613991212102979e-08  1.3581216199459252e-07  -1.1081456809033889e-07  -3.5177376037380299e-06  3.6712356048786385e-05  -2.3561149641329279e-04  1.1238420385885914e-03  -4.0077303797699526e-03  9.4539522259767337e-03  -6.0604778875171439e-03  -4.9007412431016757e-02  1.2786763009610760e-01  2.9536686567162118e-01  1.0608310591648761e-01  -4.7343726590806122e-02  -2.3410625013373138e-03  7.2470985500997110e-03  -3.2543241316165361e-03  9.3658963925462519e-04  -2.0003995695111988e-04  3.1791167960589502e-05  -3.1701899169867138e-06  -6.1572034272378090e-08  1.1199969514312127e-07  -2.8641097735856560e-08  4.3513342892026669e-09  -3.0040359664140619e-10  -5.1759824751212745e-11  2.2865618221789028e-11  -4.4762487990762313e-12  4.8435170860201651e-13  9.2217433623278505e-15  -1.7305478946030647e-14  3.9922951011949088e-15  0.0000000000000000e+00  0.0000000000000000e+00  8.0346510631498236e-13  4.5851966254668319e-12  -6.6778451048558984e-11  4.2229858096290623e-10  -1.4363633369919705e-09  -1.5845124776508824e-09  6.1964543243822162e-08  -4.9316034244656300e-07  2.2938103455059270e-06  -3.8743732707003670e-06  -4.3220672977988999e-05  5.3798897967760096e-04  -3.6702610731010675e-03  1.7936760897136392e-02  -6.2762802378236102e-02  1.2786763009610766e-01  5.2838853703074444e-02  -1.0058318577291414e+00  -9.3989366441169231e-01  8.2058843634709416e-02  1.0293551186445478e-01  -5.3654469284433730e-02  1.5671382700480033e-02  -3.2543241316165404e-03  4.8476886979147268e-04  -4.0516002032172861e-05  -3.0700849170371300e-06  2.0018466412316679e-06  -4.3977449824207597e-07  5.6573603438905338e-08  -1.7594282728246522e-09  -1.2298584490822440e-09  3.7374116641149408e-10  -6.0379218919856949e-11  4.4330885800445170e-12  6.7523546535552619e-13  -3.1020776693548034e-13  5.9827567115288953e-14  -5.3445400559308202e-15  0.0000000000000000e+00  0.0000000000000000e+00  7.3812490440293931e-13  -5.4289932186220616e-12  1.9707317192854702e-11  1.2709302964856523e-11  -7.6565212582863272e-10  6.1539903921725639e-09  -2.7350935327203845e-08  2.9086105969032301e-08  6.7650409994878611e-07  -6.9348006429778297e-06  3.8043730030298543e-05  -9.8652272246682531e-05  -4.4923783886858658e-04  7.7409075203597640e-03  -5.8004188716853915e-02  2.9536686567162113e-01  -1.0058318577291410e+00  1.4288842293762845e+00  5.2157429433971245e+00  1.1906709163653255e+00  -9.0546119507137290e-01  2.7039434070610435e-01  -5.3654469284433473e-02  7.2470985500996780e-03  -4.3885674972727598e-04  -8.7650387261141330e-05  3.4933510781350476e-05  -6.4539387775421465e-06  6.4349759292981243e-07  2.3491956752681476e-08  -2.4947572716088455e-08  5.7037173994942513e-09  -7.2169847636583507e-10  1.4892748248633467e-11  1.7826001722634935e-11  -5.0325167166470774e-12  7.5633342018835765e-13  -4.1479825097735099e-14  -1.2258971403775321e-14  0.0000000000000000e+00  0.0000000000000000e+00  -2.8702799336705869e-13  2.4785500755791554e-13  7.9018344732780877e-12  -7.5145560221562695e-11  3.7582555116123845e-10  -6.8948462291915707e-10  -6.7471908461097295e-09  8.1228511383988482e-08  -4.7007620532653706e-07  1.2824762356845213e-06  5.1026826071438834e-06  -8.9559343152036735e-05  6.1085411727102783e-04  -2.2340162493163940e-03  -2.2359315008352327e-03  1.0608310591648758e-01  -9.3989366441169164e-01  5.2157429433971210e+00  -1.6964837843681842e+01  -1.6087893884379909e+01  4.9976743499027503e+00  -9.0546119507137668e-01  1.0293551186445515e-01  -2.3410625013374170e-03  -2.1255745399888443e-03  5.8704422208554266e-04  -8.6675331427508667e-05  5.0571661620404851e-06  1.2112496933692885e-06  -4.5084943306973823e-07  7.8457758050261025e-08  -6.6116422281676075e-09  -6.4187349846710172e-10  3.5968964322450825e-10  -7.245959686473873