<?xml version="1.0"?>
<VTKFile type="UnstructuredGrid"  version="0.1"  >
<UnstructuredGrid>
<Piece  NumberOfPoints="1681" NumberOfCells="3200">
<Points>
<DataArray  type="Float64"  NumberOfComponents="3"  format="ascii">-2 -2 0  -1.9 -2 0  -1.8 -2 0  -1.7 -2 0  -1.6 -2 0  -1.5 -2 0  -1.4 -2 0  -1.3 -2 0  -1.2 -2 0  -1.1 -2 0  -1 -2 0  -0.8999999999999999 -2 0  -0.8 -2 0  -0.7 -2 0  -0.6000000000000001 -2 0  -0.5 -2 0  -0.3999999999999999 -2 0  -0.3 -2 0  -0.2 -2 0  -0.1000000000000001 -2 0  0 -2 0  0.1000000000000001 -2 0  0.2000000000000002 -2 0  0.2999999999999998 -2 0  0.3999999999999999 -2 0  0.5 -2 0  0.6000000000000001 -2 0  0.7000000000000002 -2 0  0.7999999999999998 -2 0  0.8999999999999999 -2 0  1 -2 0  1.1 -2 0  1.2 -2 0  1.3 -2 0  1.4 -2 0  1.5 -2 0  1.6 -2 0  1.7 -2 0  1.8 -2 0  1.9 -2 0  2 -2 0  -2 -1.9 0  -1.9 -1.9 0  -1.8 -1.9 0  -1.7 -1.9 0  -1.6 -1.9 0  -1.5 -1.9 0  -1.4 -1.9 0  -1.3 -1.9 0  -1.2 -1.9 0  -1.1 -1.9 0  -1 -1.9 0  -0.8999999999999999 -1.9 0  -0.8 -1.9 0  -0.7 -1.9 0  -0.6000000000000001 -1.9 0  -0.5 -1.9 0  -0.3999999999999999 -1.9 0  -0.3 -1.9 0  -0.2 -1.9 0  -0.1000000000000001 -1.9 0  0 -1.9 0  0.1000000000000001 -1.9 0  0.2000000000000002 -1.9 0  0.2999999999999998 -1.9 0  0.3999999999999999 -1.9 0  0.5 -1.9 0  0.6000000000000001 -1.9 0  0.7000000000000002 -1.9 0  0.7999999999999998 -1.9 0  0.8999999999999999 -1.9 0  1 -1.9 0  1.1 -1.9 0  1.2 -1.9 0  1.3 -1.9 0  1.4 -1.9 0  1.5 -1.9 0  1.6 -1.9 0  1.7 -1.9 0  1.8 -1.9 0  1.9 -1.9 0  2 -1.9 0  -2 -1.8 0  -1.9 -1.8 0  -1.8 -1.8 0  -1.7 -1.8 0  -1.6 -1.8 0  -1.5 -1.8 0  -1.4 -1.8 0  -1.3 -1.8 0  -1.2 -1.8 0  -1.1 -1.8 0  -1 -1.8 0  -0.8999999999999999 -1.8 0  -0.8 -1.8 0  -0.7 -1.8 0  -0.6000000000000001 -1.8 0  -0.5 -1.8 0  -0.3999999999999999 -1.8 0  -0.3 -1.8 0  -0.2 -1.8 0  -0.1000000000000001 -1.8 0  0 -1.8 0  0.1000000000000001 -1.8 0  0.2000000000000002 -1.8 0  0.2999999999999998 -1.8 0  0.3999999999999999 -1.8 0  0.5 -1.8 0  0.6000000000000001 -1.8 0  0.7000000000000002 -1.8 0  0.7999999999999998 -1.8 0  0.8999999999999999 -1.8 0  1 -1.8 0  1.1 -1.8 0  1.2 -1.8 0  1.3 -1.8 0  1.4 -1.8 0  1.5 -1.8 0  1.6 -1.8 0  1.7 -1.8 0  1.8 -1.8 0  1.9 -1.8 0  2 -1.8 0  -2 -1.7 0  -1.9 -1.7 0  -1.8 -1.7 0  -1.7 -1.7 0  -1.6 -1.7 0  -1.5 -1.7 0  -1.4 -1.7 0  -1.3 -1.7 0  -1.2 -1.7 0  -1.1 -1.7 0  -1 -1.7 0  -0.8999999999999999 -1.7 0  -0.8 -1.7 0  -0.7 -1.7 0  -0.6000000000000001 -1.7 0  -0.5 -1.7 0  -0.3999999999999999 -1.7 0  -0.3 -1.7 0  -0.2 -1.7 0  -0.1000000000000001 -1.7 0  0 -1.7 0  0.1000000000000001 -1.7 0  0.2000000000000002 -1.7 0  0.2999999999999998 -1.7 0  0.3999999999999999 -1.7 0  0.5 -1.7 0  0.6000000000000001 -1.7 0  0.7000000000000002 -1.7 0  0.7999999999999998 -1.7 0  0.8999999999999999 -1.7 0  1 -1.7 0  1.1 -1.7 0  1.2 -1.7 0  1.3 -1.7 0  1.4 -1.7 0  1.5 -1.7 0  1.6 -1.7 0  1.7 -1.7 0  1.8 -1.7 0  1.9 -1.7 0  2 -1.7 0  -2 -1.6 0  -1.9 -1.6 0  -1.8 -1.6 0  -1.7 -1.6 0  -1.6 -1.6 0  -1.5 -1.6 0  -1.4 -1.6 0  -1.3 -1.6 0  -1.2 -1.6 0  -1.1 -1.6 0  -1 -1.6 0  -0.8999999999999999 -1.6 0  -0.8 -1.6 0  -0.7 -1.6 0  -0.6000000000000001 -1.6 0  -0.5 -1.6 0  -0.3999999999999999 -1.6 0  -0.3 -1.6 0  -0.2 -1.6 0  -0.1000000000000001 -1.6 0  0 -1.6 0  0.1000000000000001 -1.6 0  0.2000000000000002 -1.6 0  0.2999999999999998 -1.6 0  0.3999999999999999 -1.6 0  0.5 -1.6 0  0.6000000000000001 -1.6 0  0.7000000000000002 -1.6 0  0.7999999999999998 -1.6 0  0.8999999999999999 -1.6 0  1 -1.6 0  1.1 -1.6 0  1.2 -1.6 0  1.3 -1.6 0  1.4 -1.6 0  1.5 -1.6 0  1.6 -1.6 0  1.7 -1.6 0  1.8 -1.6 0  1.9 -1.6 0  2 -1.6 0  -2 -1.5 0  -1.9 -1.5 0  -1.8 -1.5 0  -1.7 -1.5 0  -1.6 -1.5 0  -1.5 -1.5 0  -1.4 -1.5 0  -1.3 -1.5 0  -1.2 -1.5 0  -1.1 -1.5 0  -1 -1.5 0  -0.8999999999999999 -1.5 0  -0.8 -1.5 0  -0.7 -1.5 0  -0.6000000000000001 -1.5 0  -0.5 -1.5 0  -0.3999999999999999 -1.5 0  -0.3 -1.5 0  -0.2 -1.5 0  -0.1000000000000001 -1.5 0  0 -1.5 0  0.1000000000000001 -1.5 0  0.2000000000000002 -1.5 0  0.2999999999999998 -1.5 0  0.3999999999999999 -1.5 0  0.5 -1.5 0  0.6000000000000001 -1.5 0  0.7000000000000002 -1.5 0  0.7999999999999998 -1.5 0  0.8999999999999999 -1.5 0  1 -1.5 0  1.1 -1.5 0  1.2 -1.5 0  1.3 -1.5 0  1.4 -1.5 0  1.5 -1.5 0  1.6 -1.5 0  1.7 -1.5 0  1.8 -1.5 0  1.9 -1.5 0  2 -1.5 0  -2 -1.4 0  -1.9 -1.4 0  -1.8 -1.4 0  -1.7 -1.4 0  -1.6 -1.4 0  -1.5 -1.4 0  -1.4 -1.4 0  -1.3 -1.4 0  -1.2 -1.4 0  -1.1 -1.4 0  -1 -1.4 0  -0.8999999999999999 -1.4 0  -0.8 -1.4 0  -0.7 -1.4 0  -0.6000000000000001 -1.4 0  -0.5 -1.4 0  -0.3999999999999999 -1.4 0  -0.3 -1.4 0  -0.2 -1.4 0  -0.1000000000000001 -1.4 0  0 -1.4 0  0.1000000000000001 -1.4 0  0.2000000000000002 -1.4 0  0.2999999999999998 -1.4 0  0.3999999999999999 -1.4 0  0.5 -1.4 0  0.6000000000000001 -1.4 0  0.7000000000000002 -1.4 0  0.7999999999999998 -1.4 0  0.8999999999999999 -1.4 0  1 -1.4 0  1.1 -1.4 0  1.2 -1.4 0  1.3 -1.4 0  1.4 -1.4 0  1.5 -1.4 0  1.6 -1.4 0  1.7 -1.4 0  1.8 -1.4 0  1.9 -1.4 0  2 -1.4 0  -2 -1.3 0  -1.9 -1.3 0  -1.8 -1.3 0  -1.7 -1.3 0  -1.6 -1.3 0  -1.5 -1.3 0  -1.4 -1.3 0  -1.3 -1.3 0  -1.2 -1.3 0  -1.1 -1.3 0  -1 -1.3 0  -0.8999999999999999 -1.3 0  -0.8 -1.3 0  -0.7 -1.3 0  -0.6000000000000001 -1.3 0  -0.5 -1.3 0  -0.3999999999999999 -1.3 0  -0.3 -1.3 0  -0.2 -1.3 0  -0.1000000000000001 -1.3 0  0 -1.3 0  0.1000000000000001 -1.3 0  0.2000000000000002 -1.3 0  0.2999999999999998 -1.3 0  0.3999999999999999 -1.3 0  0.5 -1.3 0  0.6000000000000001 -1.3 0  0.7000000000000002 -1.3 0  0.7999999999999998 -1.3 0  0.8999999999999999 -1.3 0  1 -1.3 0  1.1 -1.3 0  1.2 -1.3 0  1.3 -1.3 0  1.4 -1.3 0  1.5 -1.3 0  1.6 -1.3 0  1.7 -1.3 0  1.8 -1.3 0  1.9 -1.3 0  2 -1.3 0  -2 -1.2 0  -1.9 -1.2 0  -1.8 -1.2 0  -1.7 -1.2 0  -1.6 -1.2 0  -1.5 -1.2 0  -1.4 -1.2 0  -1.3 -1.2 0  -1.2 -1.2 0  -1.1 -1.2 0  -1 -1.2 0  -0.8999999999999999 -1.2 0  -0.8 -1.2 0  -0.7 -1.2 0  -0.6000000000000001 -1.2 0  -0.5 -1.2 0  -0.3999999999999999 -1.2 0  -0.3 -1.2 0  -0.2 -1.2 0  -0.1000000000000001 -1.2 0  0 -1.2 0  0.1000000000000001 -1.2 0  0.2000000000000002 -1.2 0  0.2999999999999998 -1.2 0  0.3999999999999999 -1.2 0  0.5 -1.2 0  0.6000000000000001 -1.2 0  0.7000000000000002 -1.2 0  0.7999999999999998 -1.2 0  0.8999999999999999 -1.2 0  1 -1.2 0  1.1 -1.2 0  1.2 -1.2 0  1.3 -1.2 0  1.4 -1.2 0  1.5 -1.2 0  1.6 -1.2 0  1.7 -1.2 0  1.8 -1.2 0  1.9 -1.2 0  2 -1.2 0  -2 -1.1 0  -1.9 -1.1 0  -1.8 -1.1 0  -1.7 -1.1 0  -1.6 -1.1 0  -1.5 -1.1 0  -1.4 -1.1 0  -1.3 -1.1 0  -1.2 -1.1 0  -1.1 -1.1 0  -1 -1.1 0  -0.8999999999999999 -1.1 0  -0.8 -1.1 0  -0.7 -1.1 0  -0.6000000000000001 -1.1 0  -0.5 -1.1 0  -0.3999999999999999 -1.1 0  -0.3 -1.1 0  -0.2 -1.1 0  -0.1000000000000001 -1.1 0  0 -1.1 0  0.1000000000000001 -1.1 0  0.2000000000000002 -1.1 0  0.2999999999999998 -1.1 0  0.3999999999999999 -1.1 0  0.5 -1.1 0  0.6000000000000001 -1.1 0  0.7000000000000002 -1.1 0  0.7999999999999998 -1.1 0  0.8999999999999999 -1.1 0  1 -1.1 0  1.1 -1.1 0  1.2 -1.1 0  1.3 -1.1 0  1.4 -1.1 0  1.5 -1.1 0  1.6 -1.1 0  1.7 -1.1 0  1.8 -1.1 0  1.9 -1.1 0  2 -1.1 0  -2 -1 0  -1.9 -1 0  -1.8 -1 0  -1.7 -1 0  -1.6 -1 0  -1.5 -1 0  -1.4 -1 0  -1.3 -1 0  -1.2 -1 0  -1.1 -1 0  -1 -1 0  -0.8999999999999999 -1 0  -0.8 -1 0  -0.7 -1 0  -0.6000000000000001 -1 0  -0.5 -1 0  -0.3999999999999999 -1 0  -0.3 -1 0  -0.2 -1 0  -0.1000000000000001 -1 0  0 -1 0  0.1000000000000001 -1 0  0.2000000000000002 -1 0  0.2999999999999998 -1 0  0.3999999999999999 -1 0  0.5 -1 0  0.6000000000000001 -1 0  0.7000000000000002 -1 0  0.7999999999999998 -1 0  0.8999999999999999 -1 0  1 -1 0  1.1 -1 0  1.2 -1 0  1.3 -1 0  1.4 -1 0  1.5 -1 0  1.6 -1 0  1.7 -1 0  1.8 -1 0  1.9 -1 0  2 -1 0  -2 -0.8999999999999999 0  -1.9 -0.8999999999999999 0  -1.8 -0.8999999999999999 0  -1.7 -0.8999999999999999 0  -1.6 -0.8999999999999999 0  -1.5 -0.8999999999999999 0  -1.4 -0.8999999999999999 0  -1.3 -0.8999999999999999 0  -1.2 -0.8999999999999999 0  -1.1 -0.8999999999999999 0  -1 -0.8999999999999999 0  -0.8999999999999999 -0.8999999999999999 0  -0.8 -0.8999999999999999 0  -0.7 -0.8999999999999999 0  -0.6000000000000001 -0.8999999999999999 0  -0.5 -0.8999999999999999 0  -0.3999999999999999 -0.8999999999999999 0  -0.3 -0.8999999999999999 0  -0.2 -0.8999999999999999 0  -0.1000000000000001 -0.8999999999999999 0  0 -0.8999999999999999 0  0.1000000000000001 -0.8999999999999999 0  0.2000000000000002 -0.8999999999999999 0  0.2999999999999998 -0.8999999999999999 0  0.3999999999999999 -0.8999999999999999 0  0.5 -0.8999999999999999 0  0.6000000000000001 -0.8999999999999999 0  0.7000000000000002 -0.8999999999999999 0  0.7999999999999998 -0.8999999999999999 0  0.8999999999999999 -0.8999999999999999 0  1 -0.8999999999999999 0  1.1 -0.8999999999999999 0  1.2 -0.8999999999999999 0  1.3 -0.8999999999999999 0  1.4 -0.8999999999999999 0  1.5 -0.8999999999999999 0  1.6 -0.8999999999999999 0  1.7 -0.8999999999999999 0  1.8 -0.8999999999999999 0  1.9 -0.8999999999999999 0  2 -0.8999999999999999 0  -2 -0.8 0  -1.9 -0.8 0  -1.8 -0.8 0  -1.7 -0.8 0  -1.6 -0.8 0  -1.5 -0.8 0  -1.4 -0.8 0  -1.3 -0.8 0  -1.2 -0.8 0  -1.1 -0.8 0  -1 -0.8 0  -0.8999999999999999 -0.8 0  -0.8 -0.8 0  -0.7 -0.8 0  -0.6000000000000001 -0.8 0  -0.5 -0.8 0  -0.3999999999999999 -0.8 0  -0.3 -0.8 0  -0.2 -0.8 0  -0.1000000000000001 -0.8 0  0 -0.8 0  0.1000000000000001 -0.8 0  0.2000000000000002 -0.8 0  0.2999999999999998 -0.8 0  0.3999999999999999 -0.8 0  0.5 -0.8 0  0.6000000000000001 -0.8 0  0.7000000000000002 -0.8 0  0.7999999999999998 -0.8 0  0.8999999999999999 -0.8 0  1 -0.8 0  1.1 -0.8 0  1.2 -0.8 0  1.3 -0.8 0  1.4 -0.8 0  1.5 -0.8 0  1.6 -0.8 0  1.7 -0.8 0  1.8 -0.8 0  1.9 -0.8 0  2 -0.8 0  -2 -0.7 0  -1.9 -0.7 0  -1.8 -0.7 0  -1.7 -0.7 0  -1.6 -0.7 0  -1.5 -0.7 0  -1.4 -0.7 0  -1.3 -0.7 0  -1.2 -0.7 0  -1.1 -0.7 0  -1 -0.7 0  -0.8999999999999999 -0.7 0  -0.8 -0.7 0  -0.7 -0.7 0  -0.6000000000000001 -0.7 0  -0.5 -0.7 0  -0.3999999999999999 -0.7 0  -0.3 -0.7 0  -0.2 -0.7 0  -0.1000000000000001 -0.7 0  0 -0.7 0  0.1000000000000001 -0.7 0  0.2000000000000002 -0.7 0  0.2999999999999998 -0.7 0  0.3999999999999999 -0.7 0  0.5 -0.7 0  0.600000000000000
[...]
<PointData  Scalars="f_1726"> 
<DataArray  type="Float64"  Name="f_1726"  format="ascii">0.0000000000000000e+00  0.0000000000000000e+00  0.0000000000000000e+00  0.0000000000000000e+00  0.0000000000000000e+00  0.0000000000000000e+00  0.0000000000000000e+00  0.0000000000000000e+00  0.0000000000000000e+00  0.0000000000000000e+00  0.0000000000000000e+00  0.0000000000000000e+00  0.0000000000000000e+00  0.0000000000000000e+00  0.0000000000000000e+00  0.0000000000000000e+00  0.0000000000000000e+00  0.0000000000000000e+00  0.0000000000000000e+00  0.0000000000000000e+00  0.0000000000000000e+00  0.0000000000000000e+00  0.0000000000000000e+00  0.0000000000000000e+00  0.0000000000000000e+00  0.0000000000000000e+00  0.0000000000000000e+00  0.0000000000000000e+00  0.0000000000000000e+00  0.0000000000000000e+00  0.0000000000000000e+00  0.0000000000000000e+00  0.0000000000000000e+00  0.0000000000000000e+00  0.0000000000000000e+00  0.0000000000000000e+00  0.0000000000000000e+00  0.0000000000000000e+00  0.0000000000000000e+00  0.0000000000000000e+00  0.0000000000000000e+00  0.0000000000000000e+00  -1.5551459846415559e-13  -1.8123037161563815e-13  1.1909163216962788e-12  -2.8697706721712768e-13  -6.0315751992683859e-12  3.2496365449029445e-12  2.9677072559587236e-11  4.0830497997201916e-12  -1.2318413954737268e-10  -2.4579750704925267e-10  -2.1665915471924452e-10  -7.4676221541432237e-11  2.0210084681779687e-11  2.0474927876196617e-11  -1.9434473350327572e-12  -3.9244138287956851e-12  6.5749013253556583e-13  6.0402105506425758e-13  -2.3488023551621671e-13  -4.2911881354670392e-14  5.1138115934542779e-14  -1.0031739610927320e-14  -4.3735344846923686e-15  3.2669678055398943e-15  -7.1721784420534791e-16  -1.6294580618059289e-16  1.7998522145703114e-16  -6.4563161185523889e-17  7.5777563178718220e-18  4.8511304349409518e-18  -3.6156498122954114e-18  1.3549777037057567e-18  -2.9964799172563286e-19  2.4809305125519902e-21  3.5133456226898183e-20  -2.1134115504445280e-20  8.5988227282511918e-21  -2.8504266891821883e-21  9.0356663023095482e-22  0.0000000000000000e+00  0.0000000000000000e+00  -1.8123037161563810e-13  1.3033362635349722e-12  -1.1594459728763763e-12  -5.7095840794233745e-12  1.1990035319654440e-11  2.2409126266102513e-11  -6.4560760572434788e-11  -1.2611245206369667e-10  1.8804266870565007e-10  8.0594856891748696e-10  1.0521586267300848e-09  6.1621967568656163e-10  4.9840988353941874e-11  -1.1945622210053685e-10  -2.7152661391147222e-11  2.2177980613834352e-11  3.7521499232325948e-12  -4.4426440461337958e-12  2.0282426764774917e-13  6.9645160324263104e-13  -2.3470748526054474e-13  -3.3943696480044241e-14  4.8957987998163232e-14  -1.4161388660675185e-14  -1.3192662100184680e-15  2.6581600908761221e-15  -1.0600713102587405e-15  1.4744331397908006e-16  7.0170443454043186e-17  -5.6520528987731981e-17  2.1292751545852228e-17  -4.5461170427160178e-18  -8.4891145344284501e-20  5.9945524515307158e-19  -3.4007578310152463e-19  1.3295034694199812e-19  -4.2041360233027771e-20  1.1420330256958288e-20  -2.8504266891821924e-21  0.0000000000000000e+00  0.0000000000000000e+00  1.1909163216962805e-12  -1.1594459728763775e-12  -5.2199912260553530e-12  1.5459302764259105e-11  8.5289106518693085e-12  -9.1713010399169593e-11  5.6907985845566098e-12  4.5814760917224405e-10  1.7398994397821199e-10  -1.8636268459243863e-09  -3.9660747364158741e-09  -3.5156646114037233e-09  -1.1409142791572121e-09  3.7487189147803352e-10  3.0536790264599098e-10  -5.4262467571903891e-11  -5.4646022939077590e-11  1.6126856650288450e-11  6.4662150904571823e-12  -4.2558937127567912e-12  1.7336457104384807e-13  6.1892141522045543e-13  -2.5384866647340444e-13  7.5463205780202208e-15  3.4342783221470723e-14  -1.6651725303469201e-14  3.0674664590726810e-15  7.7911879214071059e-16  -8.1525342423497606e-16  3.3037034368476329e-16  -7.5556247958963896e-17  8.6861759209957142e-19  8.7093740882935338e-18  -5.1646162642335417e-18  2.0504710856906305e-18  -6.5468696792344212e-19  1.7741050044764028e-19  -4.2041360233027591e-20  8.5988227282511692e-21  0.0000000000000000e+00  0.0000000000000000e+00  -2.8697706721712904e-13  -5.7095840794233793e-12  1.5459302764259121e-11  2.9012878646413368e-12  -9.3937091459090276e-11  1.0696739175109911e-10  4.1000524788724578e-10  -7.4775952710883769e-10  -2.0659371080502316e-09  2.2461664607308607e-09  1.1935124298257245e-08  1.6086677094318267e-08  9.2156782732619257e-09  4.2519096731612279e-10  -1.8301396818427418e-09  -2.5881291034500462e-10  3.4557462145472825e-10  1.0400254130665857e-11  -6.1492980791832277e-11  1.2806025471589065e-11  6.3054502201810987e-12  -4.1182001022936685e-12  5.5255748148852718e-13  3.9635382617067060e-13  -2.5294742756596649e-13  5.9454490891664982e-14  6.6906114240581149e-15  -1.1496250414797683e-14  5.1155605463590493e-15  -1.2644558795304278e-15  5.3395551485939967e-17  1.2517532011719611e-16  -7.8777550537197062e-17  3.1908434766394499e-17  -1.0277360447512174e-17  2.7952989893078145e-18  -6.5468696792344540e-19  1.3295034694199833e-19  -2.1134115504445379e-20  0.0000000000000000e+00  0.0000000000000000e+00  -6.0315751992684021e-12  1.1990035319654464e-11  8.5289106518692971e-12  -9.3937091459090366e-11  1.3971101956242274e-10  3.0907034543024138e-10  -1.1805920748840462e-09  -6.5629649736325852e-10  6.3690558332249048e-09  4.3851783625947710e-09  -2.5939545229322133e-08  -5.9953740741041682e-08  -5.3435344383313344e-08  -1.5961827538148131e-08  6.4941201027759333e-09  4.0686928808782838e-09  -1.1754022836653807e-09  -6.2654708179679831e-10  3.0754489460850818e-10  3.3109318173541158e-11  -5.9295008049041411e-11  1.4587341930689601e-11  3.6276771388410909e-12  -3.6629959322875906e-12  1.0833276213623022e-12  1.4217576128968897e-14  -1.5697403112154383e-13  7.8475057848269336e-14  -2.1038952073013230e-14  1.4901151019709537e-15  1.7739651097655064e-15  -1.1995055721002276e-15  4.9678167379432861e-16  -1.6144756698767959e-16  4.4008086550895916e-17  -1.0277360447512159e-17  2.0504710856906359e-18  -3.4007578310152420e-19  3.5133456226898183e-20  0.0000000000000000e+00  0.0000000000000000e+00  3.2496365449029610e-12  2.2409126266102562e-11  -9.1713010399169748e-11  1.0696739175109936e-10  3.0907034543024154e-10  -1.2752912402907014e-09  3.4535533417140040e-10  6.7223657093173960e-09  -7.2216485263570354e-09  -3.2838919516127077e-08  2.3886990706918862e-08  1.7565790429479335e-07  2.4598316801373563e-07  1.3703285086398615e-07  6.6939323596267025e-10  -2.7506941326249418e-08  -1.2966354241730162e-09  5.0359224399048335e-09  -5.6421782668758811e-10  -7.1000089516513853e-10  2.9434058720982046e-10  1.2187007180339235e-11  -4.9409414718811304e-11  1.8711351914339316e-11  -1.2391715615804429e-12  -2.0396484439620836e-12  1.1881610136014455e-12  -3.4769135166047625e-13  3.4126602256269368e-14  2.4623521421356071e-14  -1.8206321191641875e-14  7.7342360347421773e-15  -2.5386748444991836e-15  6.9357420436206779e-16  -1.6144756698767962e-16  3.1908434766394462e-17  -5.1646162642335587e-18  5.9945524515307235e-19  2.4809305125516287e-21  0.0000000000000000e+00  0.0000000000000000e+00  2.9677072559587301e-11  -6.4560760572434969e-11  5.6907985845566954e-12  4.1000524788724614e-10  -1.1805920748840479e-09  3.4535533417140091e-10  6.3954855525895001e-09  -1.2764753898889391e-08  -2.0271862785353352e-08  8.3671565414838284e-08  9.3024708226217976e-08  -3.5418058483123373e-07  -9.0915058720874113e-07  -8.1506492636274606e-07  -2.1836273603262237e-07  1.1113756613440291e-07  5.0706714491612046e-08  -2.2381768606893419e-08  -5.5213491771879468e-09  4.9408064368293885e-09  -5.2525677625725974e-10  -5.9057900977527620e-10  3.0583920459833513e-10  -4.2356007458463108e-11  -2.4373588873589648e-11  1.7666726937554507e-11  -5.7017150910476747e-12  7.1288507088820805e-13  3.3160679102729544e-13  -2.7520487211034496e-13  1.2040364263974790e-13  -3.9966733658565848e-14  1.0946408566415297e-14  -2.5386748444991875e-15  4.9678167379432970e-16  -7.8777550537197210e-17  8.7093740882935939e-18  -8.4891145344291254e-20  -2.9964799172563165e-19  0.0000000000000000e+00  0.0000000000000000e+00  4.0830497997201924e-12  -1.2611245206369687e-10  4.5814760917224508e-10  -7.4775952710883914e-10  -6.5629649736326018e-10  6.7223657093174059e-09  -1.2764753898889401e-08  -1.3771447126004080e-08  9.8072633416998647e-08  -3.9563627977347709e-08  -5.0518812082142084e-07  1.9278355021664347e-07  2.5779520801971807e-06  3.7832946445162694e-06  2.0331844343515364e-06  -9.0681579682720506e-08  -4.0356209170502725e-07  2.3801690351224045e-08  6.6470770535974285e-08  -1.8256888298560621e-08  -5.4104272739524124e-09  4.6674558477573937e-09  -1.0064155721655779e-09  -2.4582573532756564e-10  2.5590748502243191e-10  -9.2624649959715382e-11  1.4116217001012304e-11  4.2606744788090593e-12  -4.1376062297516405e-12  1.8740832364294105e-12  -6.3006846071323483e-13  1.7304918166696081e-13  -3.9966733658565690e-14  7.7342360347421537e-15  -1.1995055721002237e-15  1.2517532011719547e-16  8.6861759209963632e-19  -4.5461170427160062e-18  1.3549777037057527e-18  0.0000000000000000e+00  0.0000000000000000e+00  -1.2318413954737263e-10  1.8804266870565009e-10  1.7398994397821246e-10  -2.0659371080502354e-09  6.3690558332249197e-09  -7.2216485263570445e-09  -2.0271862785353411e-08  9.8072633416998766e-08  -8.7611515406576428e-08  -4.3105786291671932e-07  9.9426799736583544e-07  1.8047824850158543e-06  -4.6905249193256440e-06  -1.3847996753528112e-05  -1.2494245226848963e-05  -2.8786287607620806e-06  1.8770667901126033e-06  5.5359562828582799e-07  -3.8467192179568808e-07  -1.1310332220663274e-08  6.4203412610536671e-08  -2.0415053202212468e-08  -1.4397722056554458e-09  3.5607761133970819e-09  -1.4862603626252386e-09  2.6981400580370360e-10  5.0457144905287218e-11  -6.1757685687083000e-11  2.9160591430322255e-11  -9.9488822032985099e-12  2.7410127149222149e-12  -6.3006846071323765e-13  1.2040364263974813e-13  -1.8206321191641967e-14  1.7739651097655255e-15  5.3395551485936096e-17  -7.5556247958963477e-17  2.1292751545852096e-17  -3.6156498122953976e-18  0.0000000000000000e+00  0.0000000000000000e+00  -2.4579750704925251e-10  8.0594856891748665e-10  -1.8636268459243863e-09  2.2461664607308607e-09  4.3851783625947842e-09  -3.2838919516127156e-08  8.3671565414838456e-08  -3.9563627977347642e-08  -4.3105786291671975e-07  1.1959452666437086e-06  5.3885451062647095e-07  -7.4105257974486207e-06  4.6498506640432148e-08  3.7649429727280674e-05  5.8651272452541015e-05  3.0042389712375012e-05  -3.1704702235648707e-06  -5.6748736914926369e-06  1.0494736654355267e-06  7.2190763096282051e-07  -3.6893830382025030e-07  1.9223896143642551e-08  4.6295210247099872e-08  -2.3437532007681392e-08  5.0255743601264052e-09  5.0302934917488596e-10  -9.1253263759146143e-10  4.5347622059897186e-10  -1.5739317306705263e-10  4.3516732739188993e-11  -9.9488822032984970e-12  1.8740832364294153e-12  -2.7520487211034471e-13  2.4623521421356093e-14  1.4901151019709575e-15  -1.2644558795304268e-15  3.3037034368476408e-16  -5.6520528987731919e-17  4.8511304349409533e-18  0.0000000000000000e+00  0.0000000000000000e+00  -2.1665915471924419e-10  1.0521586267300836e-09  -3.9660747364158716e-09  1.1935124298257237e-08  -2.5939545229322130e-08  2.3886990706918842e-08  9.3024708226218241e-08  -5.0518812082142200e-07  9.9426799736583629e-07  5.3885451062647180e-07  -7.4406990130098361e-06  9.4144494579381612e-06  3.2907702471605382e-05  -5.8791752383303717e-05  -2.1220026617931100e-04  -1.9280517944851363e-04  -3.5368264011995640e-05  3.1131877293949723e-05  4.1756181286393261e-06  -5.8492152026756584e-06  9.9118768838584124e-07  5.2658580234083984e-07  -3.5987548290814160e-07  9.1651390738461776e-08  2.7405051773530197e-09  -1.3287441088905323e-08  7.0451685454246080e-09  -2.4956815860446031e-09  6.9281251494749434e-10  -1.5739317306705266e-10  2.9160591430322236e-11  -4.1376062297516558e-12  3.3160679102729700e-13  3.4126602256268964e-14  -2.1038952073013148e-14  5.1155605463590249e-15  -8.1525342423497399e-16  7.0170443454042483e-17  7.5777563178719129e-18  0.0000000000000000e+00  0.0000000000000000e+00  -7.4676221541432133e-11  6.1621967568656081e-10  -3.5156646114037204e-09  1.6086677094318254e-08  -5.9953740741041615e-08  1.7565790429479327e-07  -3.5418058483123357e-07  1.9278355021664326e-07  1.8047824850158592e-06  -7.4105257974486301e-06  9.4144494579381612e-06  2.5031722993961186e-05  -9.9950839828662875e-05  -4.9181418408810348e-05  5.4485884189673652e-04  9.1966041224816821e-04  4.4024618215620531e-04  -8.0728951443695643e-05  -7.3288041927419375e-05  2.5667319729808401e-05  4.1383711924770487e-06  -5.2813756675564904e-06  1.6381475724514010e-06  -5.0385517250279621e-08  -1.8917243538739929e-07  1.0927506435866570e-07  -3.9683289303725377e-08  1.1068115430605286e-08  -2.4956815860446068e-09  4.5347622059897284e-10  -6.1757685687083168e-11  4.2606744788091029e-12  7.1288507088820250e-13  -3.4769135166047569e-13  7.8475057848269197e-14  -1.1496250414797656e-14  7.7911879214071019e-16  1.4744331397907999e-16  -6.4563161185523852e-17  0.0000000000000000e+00  0.0000000000000000e+00  2.0210084681779729e-11  4.9840988353941512e-11  -1.1409142791572094e-09  9.2156782732619124e-09  -5.3435344383313298e-08  2.4598316801373542e-07  -9.0915058720874071e-07  2.5779520801971799e-06  -4.6905249193256457e-06  4.6498506640414036e-08  3.2907702471605464e-05  -9.9950839828662915e-05  2.9887151609173475e-05  5.6479888638752646e-04  -6.5430510379981281e-04  -3.2795987751691458e-03  -3.0034414941316986e-03  -3.6761950692841398e-04  4.9987305157092078e-04  -1.8126487544246076e-05  -7.0928002597658534e-05  2.8586728226326294e-05  -2.5123064127278682e-06  -2.5942241577139149e-06  1.6902245494939618e-06  -6.3321504989388868e-07  1.7759357015131417e-07  -3.9683289303725218e-08  7.0451685454245856e-09  -9.1253263759145729e-10  5.0457144905286727e-11  1.4116217001012363e-11  -5.7017150910476602e-12  1.1881610136014413e-12  -1.5697403112154287e-13  6.6906114240579603e-15  3.0674664590727070e-15  -1.0600713102587405e-15  1.7998522145703104e-16  0.0000000000000000e+00  0.0000000000000000e+00  2.0474927876196617e-11  -1.1945622210053687e-10  3.7487189147803414e-10  4.2519096731611731e-10  -1.5961827538148101e-08  1.3703285086398604e-07  -8.1506492636274553e-07  3.7832946445162682e-06  -1.3847996753528105e-05  3.7649429727280688e-05  -5.8791752383303697e-05  -4.9181418408810727e-05  5.6479888638752722e-04  -1.1097463011662996e-03  -1.6267730432502226e-03  7.7363413210947219e-03  1.4677978180789437e-02  6.3345256334151881e-03  -1.8281361919826955e-03  -7.5993900263904984e-04  4.8038898061610481e-04  -7.1725908548079688e-05  -3.3154982508352110e-05  2.6015291854720734e-05  -1.0150035467251660e-05  2.8658589712866714e-06  -6.3321504989389165e-07  1.0927506435866595e-07  -1.3287441088905400e-08  5.0302934917490168e-10  2.6981400580370019e-10  -9.2624649959715071e-11  1.7666726937554394e-11  -2.0396484439620699e-12  1.4217576128967483e-14  5.9454490891664994e-14  -1.6651725303469229e-14  2.6581600908761146e-15  -1.6294580618059188e-16  0.0000000000000000e+00  0.0000000000000000e+00  -1.9434473350327693e-12  -2.7152661391147160e-11  3.0536790264599078e-10  -1.8301396818427418e-09  6.4941201027759465e-09  6.6939323596257378e-10  -2.1836273603262189e-07  2.0331844343515347e-06  -1.2494245226848955e-05  5.8651272452540995e-05  -2.1220026617931113e-04  5.4485884189673674e-04  -6.5430510379981151e-04  -1.6267730432502280e-03  8.8219900758422006e-03  -4.9593994539078486e-03  -5.1359944482508205e-02  -4.7465884239795982e-02  -1.8297034771890893e-03  7.4383994828592761e-03  -1.7393963658499259e-03  -3.5912447258064129e-04  3.9669519677107141e-04  -1.6369634073024636e-04  4.6606435639494199e-05  -1.0150035467251643e-05  1.6902245494939654e-06  -1.8917243538739892e-07  2.7405051773529891e-09  5.0255743601264069e-09  -1.4862603626252365e-09  2.5590748502243238e-10  -2.4373588873589586e-11  -1.2391715615804471e-12  1.0833276213623020e-12  -2.5294742756596609e-13  3.4342783221470761e-14  -1.3192662100184605e-15  -7.1721784420534830e-16  0.0000000000000000e+00  0.0000000000000000e+00  -3.9244138287956867e-12  2.2177980613834375e-11  -5.4262467571904065e-11  -2.5881291034500333e-10  4.0686928808782788e-09  -2.7506941326249408e-08  1.1113756613440302e-07  -9.0681579682721432e-08  -2.8786287607620747e-06  3.0042389712374965e-05  -1.9280517944851350e-04  9.1966041224816810e-04  -3.2795987751691471e-03  7.7363413210947175e-03  -4.9593994539078156e-03  -4.0103658318501330e-02  1.0463641096311667e-01  2.4170408662515902e-01  8.6809737996851502e-02  -3.8742233889512111e-02  -1.9157340899816171e-03  5.9304327577548695e-03  -2.6630727181466782e-03  7.6642836285606040e-04  -1.6369634073024628e-04  2.6015291854720686e-05  -2.5942241577139238e-06  -5.0385517250278311e-08  9.1651390738461405e-08  -2.3437532007681296e-08  3.5607761133970579e-09  -2.4582573532756279e-10  -4.2356007458463586e-11  1.8711351914339384e-11  -3.6629959322875978e-12  3.9635382617067080e-13  7.5463205780201924e-15  -1.4161388660675161e-14  3.2669678055398928e-15  0.0000000000000000e+00  0.0000000000000000e+00  6.5749013253556735e-13  3.7521499232325867e-12  -5.4646022939077565e-11  3.4557462145472830e-10  -1.1754022836653822e-09  -1.2966354241730061e-09  5.0706714491612000e-08  -4.0356209170502720e-07  1.8770667901126046e-06  -3.1704702235648838e-06  -3.5368264011995531e-05  4.4024618215620471e-04  -3.0034414941316969e-03  1.4677978180789442e-02  -5.1359944482508205e-02  1.0463641096311653e-01  4.3238996505521286e-02  -8.2309053156014655e-01  -7.6913210682869448e-01  6.7150246542193065e-02  8.4234004447038865e-02  -4.3906429593120466e-02  1.2824177936004629e-02  -2.6630727181466826e-03  3.9669519677107222e-04  -3.3154982508352272e-05  -2.5123064127278410e-06  1.6381475724513930e-06  -3.5987548290814070e-07  4.6295210247099753e-08  -1.4397722056554355e-09  -1.0064155721655802e-09  3.0583920459833477e-10  -4.9409414718811233e-11  3.6276771388410772e-12  5.5255748148852940e-13  -2.5384866647340540e-13  4.8957987998163232e-14  -4.3735344846923733e-15  0.0000000000000000e+00  0.0000000000000000e+00  6.0402105506425718e-13  -4.4426440461337975e-12  1.6126856650288466e-11  1.0400254130665809e-11  -6.2654708179679820e-10  5.0359224399048360e-09  -2.2381768606893446e-08  2.3801690351224201e-08  5.5359562828582735e-07  -5.6748736914926353e-06  3.1131877293949736e-05  -8.0728951443695846e-05  -3.6761950692841268e-04  6.3345256334151829e-03  -4.7465884239795988e-02  2.4170408662515919e-01  -8.2309053156014633e-01  1.1692819936629475e+00  4.2681374613189913e+00  9.7434770029749274e-01  -7.4095538994060783e-01  2.2126861454270549e-01  -4.3906429593120293e-02  5.9304327577548487e-03  -3.5912447258063820e-04  -7.1725908548079783e-05  2.8586728226326318e-05  -5.2813756675564700e-06  5.2658580234083634e-07  1.9223896143643130e-08  -2.0415053202212518e-08  4.6674558477574110e-09  -5.9057900977527651e-10  1.2187007180339327e-11  1.4587341930689563e-11  -4.1182001022936547e-12  6.1892141522045452e-13  -3.3943696480043875e-14  -1.0031739610927349e-14  0.0000000000000000e+00  0.0000000000000000e+00  -2.3488023551621691e-13  2.0282426764775048e-13  6.4662150904571782e-12  -6.1492980791832277e-11  3.0754489460850828e-10  -5.6421782668758914e-10  -5.5213491771879410e-09  6.6470770535974285e-08  -3.8467192179568835e-07  1.0494736654355286e-06  4.1756181286393210e-06  -7.3288041927419416e-05  4.9987305157092111e-04  -1.8281361919826997e-03  -1.8297034771890661e-03  8.6809737996851391e-02  -7.6913210682869348e-01  4.2681374613189895e+00  -1.3882635841454929e+01  -1.3165016625018609e+01  4.0896879588931174e+00  -7.4095538994061072e-01  8.4234004447039129e-02  -1.9157340899816889e-03  -1.7393963658499120e-03  4.8038898061610172e-04  -7.0928002597658250e-05  4.1383711924769767e-06  9.9118768838585035e-07  -3.6893830382025125e-07  6.4203412610536724e-08  -5.4104272739524265e-09  -5.2525677625725953e-10  2.9434058720982067e-10  -5.929500804904145