<?xml version="1.0"?>
<VTKFile type="UnstructuredGrid"  version="0.1"  >
<UnstructuredGrid>
<Piece  NumberOfPoints="1681" NumberOfCells="3200">
<Points>
<DataArray  type="Float64"  NumberOfComponents="3"  format="ascii">-2 -2 0  -1.9 -2 0  -1.8 -2 0  -1.7 -2 0  -1.6 -2 0  -1.5 -2 0  -1.4 -2 0  -1.3 -2 0  -1.2 -2 0  -1.1 -2 0  -1 -2 0  -0.8999999999999999 -2 0  -0.8 -2 0  -0.7 -2 0  -0.6000000000000001 -2 0  -0.5 -2 0  -0.3999999999999999 -2 0  -0.3 -2 0  -0.2 -2 0  -0.1000000000000001 -2 0  0 -2 0  0.1000000000000001 -2 0  0.2000000000000002 -2 0  0.2999999999999998 -2 0  0.3999999999999999 -2 0  0.5 -2 0  0.6000000000000001 -2 0  0.7000000000000002 -2 0  0.7999999999999998 -2 0  0.8999999999999999 -2 0  1 -2 0  1.1 -2 0  1.2 -2 0  1.3 -2 0  1.4 -2 0  1.5 -2 0  1.6 -2 0  1.7 -2 0  1.8 -2 0  1.9 -2 0  2 -2 0  -2 -1.9 0  -1.9 -1.9 0  -1.8 -1.9 0  -1.7 -1.9 0  -1.6 -1.9 0  -1.5 -1.9 0  -1.4 -1.9 0  -1.3 -1.9 0  -1.2 -1.9 0  -1.1 -1.9 0  -1 -1.9 0  -0.8999999999999999 -1.9 0  -0.8 -1.9 0  -0.7 -1.9 0  -0.6000000000000001 -1.9 0  -0.5 -1.9 0  -0.3999999999999999 -1.9 0  -0.3 -1.9 0  -0.2 -1.9 0  -0.1000000000000001 -1.9 0  0 -1.9 0  0.1000000000000001 -1.9 0  0.2000000000000002 -1.9 0  0.2999999999999998 -1.9 0  0.3999999999999999 -1.9 0  0.5 -1.9 0  0.6000000000000001 -1.9 0  0.7000000000000002 -1.9 0  0.7999999999999998 -1.9 0  0.8999999999999999 -1.9 0  1 -1.9 0  1.1 -1.9 0  1.2 -1.9 0  1.3 -1.9 0  1.4 -1.9 0  1.5 -1.9 0  1.6 -1.9 0  1.7 -1.9 0  1.8 -1.9 0  1.9 -1.9 0  2 -1.9 0  -2 -1.8 0  -1.9 -1.8 0  -1.8 -1.8 0  -1.7 -1.8 0  -1.6 -1.8 0  -1.5 -1.8 0  -1.4 -1.8 0  -1.3 -1.8 0  -1.2 -1.8 0  -1.1 -1.8 0  -1 -1.8 0  -0.8999999999999999 -1.8 0  -0.8 -1.8 0  -0.7 -1.8 0  -0.6000000000000001 -1.8 0  -0.5 -1.8 0  -0.3999999999999999 -1.8 0  -0.3 -1.8 0  -0.2 -1.8 0  -0.1000000000000001 -1.8 0  0 -1.8 0  0.1000000000000001 -1.8 0  0.2000000000000002 -1.8 0  0.2999999999999998 -1.8 0  0.3999999999999999 -1.8 0  0.5 -1.8 0  0.6000000000000001 -1.8 0  0.7000000000000002 -1.8 0  0.7999999999999998 -1.8 0  0.8999999999999999 -1.8 0  1 -1.8 0  1.1 -1.8 0  1.2 -1.8 0  1.3 -1.8 0  1.4 -1.8 0  1.5 -1.8 0  1.6 -1.8 0  1.7 -1.8 0  1.8 -1.8 0  1.9 -1.8 0  2 -1.8 0  -2 -1.7 0  -1.9 -1.7 0  -1.8 -1.7 0  -1.7 -1.7 0  -1.6 -1.7 0  -1.5 -1.7 0  -1.4 -1.7 0  -1.3 -1.7 0  -1.2 -1.7 0  -1.1 -1.7 0  -1 -1.7 0  -0.8999999999999999 -1.7 0  -0.8 -1.7 0  -0.7 -1.7 0  -0.6000000000000001 -1.7 0  -0.5 -1.7 0  -0.3999999999999999 -1.7 0  -0.3 -1.7 0  -0.2 -1.7 0  -0.1000000000000001 -1.7 0  0 -1.7 0  0.1000000000000001 -1.7 0  0.2000000000000002 -1.7 0  0.2999999999999998 -1.7 0  0.3999999999999999 -1.7 0  0.5 -1.7 0  0.6000000000000001 -1.7 0  0.7000000000000002 -1.7 0  0.7999999999999998 -1.7 0  0.8999999999999999 -1.7 0  1 -1.7 0  1.1 -1.7 0  1.2 -1.7 0  1.3 -1.7 0  1.4 -1.7 0  1.5 -1.7 0  1.6 -1.7 0  1.7 -1.7 0  1.8 -1.7 0  1.9 -1.7 0  2 -1.7 0  -2 -1.6 0  -1.9 -1.6 0  -1.8 -1.6 0  -1.7 -1.6 0  -1.6 -1.6 0  -1.5 -1.6 0  -1.4 -1.6 0  -1.3 -1.6 0  -1.2 -1.6 0  -1.1 -1.6 0  -1 -1.6 0  -0.8999999999999999 -1.6 0  -0.8 -1.6 0  -0.7 -1.6 0  -0.6000000000000001 -1.6 0  -0.5 -1.6 0  -0.3999999999999999 -1.6 0  -0.3 -1.6 0  -0.2 -1.6 0  -0.1000000000000001 -1.6 0  0 -1.6 0  0.1000000000000001 -1.6 0  0.2000000000000002 -1.6 0  0.2999999999999998 -1.6 0  0.3999999999999999 -1.6 0  0.5 -1.6 0  0.6000000000000001 -1.6 0  0.7000000000000002 -1.6 0  0.7999999999999998 -1.6 0  0.8999999999999999 -1.6 0  1 -1.6 0  1.1 -1.6 0  1.2 -1.6 0  1.3 -1.6 0  1.4 -1.6 0  1.5 -1.6 0  1.6 -1.6 0  1.7 -1.6 0  1.8 -1.6 0  1.9 -1.6 0  2 -1.6 0  -2 -1.5 0  -1.9 -1.5 0  -1.8 -1.5 0  -1.7 -1.5 0  -1.6 -1.5 0  -1.5 -1.5 0  -1.4 -1.5 0  -1.3 -1.5 0  -1.2 -1.5 0  -1.1 -1.5 0  -1 -1.5 0  -0.8999999999999999 -1.5 0  -0.8 -1.5 0  -0.7 -1.5 0  -0.6000000000000001 -1.5 0  -0.5 -1.5 0  -0.3999999999999999 -1.5 0  -0.3 -1.5 0  -0.2 -1.5 0  -0.1000000000000001 -1.5 0  0 -1.5 0  0.1000000000000001 -1.5 0  0.2000000000000002 -1.5 0  0.2999999999999998 -1.5 0  0.3999999999999999 -1.5 0  0.5 -1.5 0  0.6000000000000001 -1.5 0  0.7000000000000002 -1.5 0  0.7999999999999998 -1.5 0  0.8999999999999999 -1.5 0  1 -1.5 0  1.1 -1.5 0  1.2 -1.5 0  1.3 -1.5 0  1.4 -1.5 0  1.5 -1.5 0  1.6 -1.5 0  1.7 -1.5 0  1.8 -1.5 0  1.9 -1.5 0  2 -1.5 0  -2 -1.4 0  -1.9 -1.4 0  -1.8 -1.4 0  -1.7 -1.4 0  -1.6 -1.4 0  -1.5 -1.4 0  -1.4 -1.4 0  -1.3 -1.4 0  -1.2 -1.4 0  -1.1 -1.4 0  -1 -1.4 0  -0.8999999999999999 -1.4 0  -0.8 -1.4 0  -0.7 -1.4 0  -0.6000000000000001 -1.4 0  -0.5 -1.4 0  -0.3999999999999999 -1.4 0  -0.3 -1.4 0  -0.2 -1.4 0  -0.1000000000000001 -1.4 0  0 -1.4 0  0.1000000000000001 -1.4 0  0.2000000000000002 -1.4 0  0.2999999999999998 -1.4 0  0.3999999999999999 -1.4 0  0.5 -1.4 0  0.6000000000000001 -1.4 0  0.7000000000000002 -1.4 0  0.7999999999999998 -1.4 0  0.8999999999999999 -1.4 0  1 -1.4 0  1.1 -1.4 0  1.2 -1.4 0  1.3 -1.4 0  1.4 -1.4 0  1.5 -1.4 0  1.6 -1.4 0  1.7 -1.4 0  1.8 -1.4 0  1.9 -1.4 0  2 -1.4 0  -2 -1.3 0  -1.9 -1.3 0  -1.8 -1.3 0  -1.7 -1.3 0  -1.6 -1.3 0  -1.5 -1.3 0  -1.4 -1.3 0  -1.3 -1.3 0  -1.2 -1.3 0  -1.1 -1.3 0  -1 -1.3 0  -0.8999999999999999 -1.3 0  -0.8 -1.3 0  -0.7 -1.3 0  -0.6000000000000001 -1.3 0  -0.5 -1.3 0  -0.3999999999999999 -1.3 0  -0.3 -1.3 0  -0.2 -1.3 0  -0.1000000000000001 -1.3 0  0 -1.3 0  0.1000000000000001 -1.3 0  0.2000000000000002 -1.3 0  0.2999999999999998 -1.3 0  0.3999999999999999 -1.3 0  0.5 -1.3 0  0.6000000000000001 -1.3 0  0.7000000000000002 -1.3 0  0.7999999999999998 -1.3 0  0.8999999999999999 -1.3 0  1 -1.3 0  1.1 -1.3 0  1.2 -1.3 0  1.3 -1.3 0  1.4 -1.3 0  1.5 -1.3 0  1.6 -1.3 0  1.7 -1.3 0  1.8 -1.3 0  1.9 -1.3 0  2 -1.3 0  -2 -1.2 0  -1.9 -1.2 0  -1.8 -1.2 0  -1.7 -1.2 0  -1.6 -1.2 0  -1.5 -1.2 0  -1.4 -1.2 0  -1.3 -1.2 0  -1.2 -1.2 0  -1.1 -1.2 0  -1 -1.2 0  -0.8999999999999999 -1.2 0  -0.8 -1.2 0  -0.7 -1.2 0  -0.6000000000000001 -1.2 0  -0.5 -1.2 0  -0.3999999999999999 -1.2 0  -0.3 -1.2 0  -0.2 -1.2 0  -0.1000000000000001 -1.2 0  0 -1.2 0  0.1000000000000001 -1.2 0  0.2000000000000002 -1.2 0  0.2999999999999998 -1.2 0  0.3999999999999999 -1.2 0  0.5 -1.2 0  0.6000000000000001 -1.2 0  0.7000000000000002 -1.2 0  0.7999999999999998 -1.2 0  0.8999999999999999 -1.2 0  1 -1.2 0  1.1 -1.2 0  1.2 -1.2 0  1.3 -1.2 0  1.4 -1.2 0  1.5 -1.2 0  1.6 -1.2 0  1.7 -1.2 0  1.8 -1.2 0  1.9 -1.2 0  2 -1.2 0  -2 -1.1 0  -1.9 -1.1 0  -1.8 -1.1 0  -1.7 -1.1 0  -1.6 -1.1 0  -1.5 -1.1 0  -1.4 -1.1 0  -1.3 -1.1 0  -1.2 -1.1 0  -1.1 -1.1 0  -1 -1.1 0  -0.8999999999999999 -1.1 0  -0.8 -1.1 0  -0.7 -1.1 0  -0.6000000000000001 -1.1 0  -0.5 -1.1 0  -0.3999999999999999 -1.1 0  -0.3 -1.1 0  -0.2 -1.1 0  -0.1000000000000001 -1.1 0  0 -1.1 0  0.1000000000000001 -1.1 0  0.2000000000000002 -1.1 0  0.2999999999999998 -1.1 0  0.3999999999999999 -1.1 0  0.5 -1.1 0  0.6000000000000001 -1.1 0  0.7000000000000002 -1.1 0  0.7999999999999998 -1.1 0  0.8999999999999999 -1.1 0  1 -1.1 0  1.1 -1.1 0  1.2 -1.1 0  1.3 -1.1 0  1.4 -1.1 0  1.5 -1.1 0  1.6 -1.1 0  1.7 -1.1 0  1.8 -1.1 0  1.9 -1.1 0  2 -1.1 0  -2 -1 0  -1.9 -1 0  -1.8 -1 0  -1.7 -1 0  -1.6 -1 0  -1.5 -1 0  -1.4 -1 0  -1.3 -1 0  -1.2 -1 0  -1.1 -1 0  -1 -1 0  -0.8999999999999999 -1 0  -0.8 -1 0  -0.7 -1 0  -0.6000000000000001 -1 0  -0.5 -1 0  -0.3999999999999999 -1 0  -0.3 -1 0  -0.2 -1 0  -0.1000000000000001 -1 0  0 -1 0  0.1000000000000001 -1 0  0.2000000000000002 -1 0  0.2999999999999998 -1 0  0.3999999999999999 -1 0  0.5 -1 0  0.6000000000000001 -1 0  0.7000000000000002 -1 0  0.7999999999999998 -1 0  0.8999999999999999 -1 0  1 -1 0  1.1 -1 0  1.2 -1 0  1.3 -1 0  1.4 -1 0  1.5 -1 0  1.6 -1 0  1.7 -1 0  1.8 -1 0  1.9 -1 0  2 -1 0  -2 -0.8999999999999999 0  -1.9 -0.8999999999999999 0  -1.8 -0.8999999999999999 0  -1.7 -0.8999999999999999 0  -1.6 -0.8999999999999999 0  -1.5 -0.8999999999999999 0  -1.4 -0.8999999999999999 0  -1.3 -0.8999999999999999 0  -1.2 -0.8999999999999999 0  -1.1 -0.8999999999999999 0  -1 -0.8999999999999999 0  -0.8999999999999999 -0.8999999999999999 0  -0.8 -0.8999999999999999 0  -0.7 -0.8999999999999999 0  -0.6000000000000001 -0.8999999999999999 0  -0.5 -0.8999999999999999 0  -0.3999999999999999 -0.8999999999999999 0  -0.3 -0.8999999999999999 0  -0.2 -0.8999999999999999 0  -0.1000000000000001 -0.8999999999999999 0  0 -0.8999999999999999 0  0.1000000000000001 -0.8999999999999999 0  0.2000000000000002 -0.8999999999999999 0  0.2999999999999998 -0.8999999999999999 0  0.3999999999999999 -0.8999999999999999 0  0.5 -0.8999999999999999 0  0.6000000000000001 -0.8999999999999999 0  0.7000000000000002 -0.8999999999999999 0  0.7999999999999998 -0.8999999999999999 0  0.8999999999999999 -0.8999999999999999 0  1 -0.8999999999999999 0  1.1 -0.8999999999999999 0  1.2 -0.8999999999999999 0  1.3 -0.8999999999999999 0  1.4 -0.8999999999999999 0  1.5 -0.8999999999999999 0  1.6 -0.8999999999999999 0  1.7 -0.8999999999999999 0  1.8 -0.8999999999999999 0  1.9 -0.8999999999999999 0  2 -0.8999999999999999 0  -2 -0.8 0  -1.9 -0.8 0  -1.8 -0.8 0  -1.7 -0.8 0  -1.6 -0.8 0  -1.5 -0.8 0  -1.4 -0.8 0  -1.3 -0.8 0  -1.2 -0.8 0  -1.1 -0.8 0  -1 -0.8 0  -0.8999999999999999 -0.8 0  -0.8 -0.8 0  -0.7 -0.8 0  -0.6000000000000001 -0.8 0  -0.5 -0.8 0  -0.3999999999999999 -0.8 0  -0.3 -0.8 0  -0.2 -0.8 0  -0.1000000000000001 -0.8 0  0 -0.8 0  0.1000000000000001 -0.8 0  0.2000000000000002 -0.8 0  0.2999999999999998 -0.8 0  0.3999999999999999 -0.8 0  0.5 -0.8 0  0.6000000000000001 -0.8 0  0.7000000000000002 -0.8 0  0.7999999999999998 -0.8 0  0.8999999999999999 -0.8 0  1 -0.8 0  1.1 -0.8 0  1.2 -0.8 0  1.3 -0.8 0  1.4 -0.8 0  1.5 -0.8 0  1.6 -0.8 0  1.7 -0.8 0  1.8 -0.8 0  1.9 -0.8 0  2 -0.8 0  -2 -0.7 0  -1.9 -0.7 0  -1.8 -0.7 0  -1.7 -0.7 0  -1.6 -0.7 0  -1.5 -0.7 0  -1.4 -0.7 0  -1.3 -0.7 0  -1.2 -0.7 0  -1.1 -0.7 0  -1 -0.7 0  -0.8999999999999999 -0.7 0  -0.8 -0.7 0  -0.7 -0.7 0  -0.6000000000000001 -0.7 0  -0.5 -0.7 0  -0.3999999999999999 -0.7 0  -0.3 -0.7 0  -0.2 -0.7 0  -0.1000000000000001 -0.7 0  0 -0.7 0  0.1000000000000001 -0.7 0  0.2000000000000002 -0.7 0  0.2999999999999998 -0.7 0  0.3999999999999999 -0.7 0  0.5 -0.7 0  0.600000000000000
[...]
<PointData  Scalars="f_1726"> 
<DataArray  type="Float64"  Name="f_1726"  format="ascii">0.0000000000000000e+00  0.0000000000000000e+00  0.0000000000000000e+00  0.0000000000000000e+00  0.0000000000000000e+00  0.0000000000000000e+00  0.0000000000000000e+00  0.0000000000000000e+00  0.0000000000000000e+00  0.0000000000000000e+00  0.0000000000000000e+00  0.0000000000000000e+00  0.0000000000000000e+00  0.0000000000000000e+00  0.0000000000000000e+00  0.0000000000000000e+00  0.0000000000000000e+00  0.0000000000000000e+00  0.0000000000000000e+00  0.0000000000000000e+00  0.0000000000000000e+00  0.0000000000000000e+00  0.0000000000000000e+00  0.0000000000000000e+00  0.0000000000000000e+00  0.0000000000000000e+00  0.0000000000000000e+00  0.0000000000000000e+00  0.0000000000000000e+00  0.0000000000000000e+00  0.0000000000000000e+00  0.0000000000000000e+00  0.0000000000000000e+00  0.0000000000000000e+00  0.0000000000000000e+00  0.0000000000000000e+00  0.0000000000000000e+00  0.0000000000000000e+00  0.0000000000000000e+00  0.0000000000000000e+00  0.0000000000000000e+00  0.0000000000000000e+00  -6.9476770519160945e-12  -8.0965395301741325e-12  5.3204664261205367e-11  -1.2820815563435234e-11  -2.6946304085093317e-10  1.4517881583505452e-10  1.3258351179025603e-09  1.8241188721510793e-10  -5.5033008344266322e-09  -1.0981102198825966e-08  -9.6793346232211346e-09  -3.3361901445335677e-09  9.0289363794515603e-10  9.1472561386496511e-10  -8.6824289067156239e-11  -1.7532476159677299e-10  2.9373635342224771e-11  2.6984882863658267e-11  -1.0493368714968549e-11  -1.9171055083366169e-12  2.2846158371333740e-12  -4.4817199011513896e-13  -1.9538940700840027e-13  1.4595309685431099e-13  -3.2041994813488508e-14  -7.2796692367617729e-15  8.0409119474997239e-15  -2.8843851175245959e-15  3.3853930238468860e-16  2.1672619761455655e-16  -1.6153060533696149e-16  6.0534172295498394e-17  -1.3386894197233622e-17  1.1083656556801330e-19  1.5696012463960445e-18  -9.4417508550891411e-19  3.8415585374343591e-19  -1.2734395543685766e-19  4.0367201560049634e-20  0.0000000000000000e+00  0.0000000000000000e+00  -8.0965395301741293e-12  5.8227070246264403e-11  -5.1798713807221311e-11  -2.5507795844477179e-10  5.3565963623168818e-10  1.0011367025995039e-09  -2.8842778691721329e-09  -5.6341243704253601e-09  8.4008816345844865e-09  3.6006075523406592e-08  4.7005608593028960e-08  2.7529861131934137e-08  2.2266661422870405e-09  -5.3367546274942441e-09  -1.2130560365958363e-09  9.9081017788881007e-10  1.6762880253329036e-10  -1.9847690438058595e-10  9.0612554951408680e-12  3.1114254670658922e-11  -1.0485651028018894e-11  -1.5164482525797389e-12  2.1872177472857732e-12  -6.3266571751278491e-13  -5.8938746993751014e-14  1.1875436805346545e-13  -4.7359110902870209e-14  6.5870891807435176e-15  3.1348927015414577e-15  -2.5250772987767691e-15  9.5126221427608147e-16  -2.0309960199834662e-16  -3.7925459618847844e-18  2.6780903474863668e-17  -1.5193021989581521e-17  5.9396100662929385e-18  -1.8782146281248843e-18  5.1020783408870875e-19  -1.2734395543685778e-19  0.0000000000000000e+00  0.0000000000000000e+00  5.3204664261205374e-11  -5.1798713807221344e-11  -2.3320520138067434e-10  6.9065055058880521e-10  3.8103250369445465e-10  -4.0973155189627978e-09  2.5423870892811195e-10  2.0467928169263691e-08  7.7730705218662106e-09  -8.3258276706080231e-08  -1.7718597935184747e-07  -1.5706372639037495e-07  -5.0970802958610807e-08  1.6747552085475876e-08  1.3642433511438497e-08  -2.4241974994813863e-09  -2.4413329893258736e-09  7.2047378815419932e-10  2.8888075229205996e-10  -1.9013375834506990e-10  7.7451317352321377e-12  2.7650562429080922e-11  -1.1340790974831064e-11  3.3713489810024003e-13  1.5342776127974662e-12  -7.4392250572147365e-13  1.3704029419549117e-13  3.4807444486443237e-14  -3.6421773666212270e-14  1.4759427591495887e-14  -3.3755056776510155e-15  3.8805839266026538e-17  3.8909478008739154e-16  -2.3073130275443823e-16  9.1605618047194537e-17  -2.9248402839033890e-17  7.9258852538729205e-18  -1.8782146281248758e-18  3.8415585374343461e-19  0.0000000000000000e+00  0.0000000000000000e+00  -1.2820815563435185e-11  -2.5507795844477179e-10  6.9065055058880562e-10  1.2961619884719177e-10  -4.1966772322309809e-09  4.7788111232767924e-09  1.8317148872476773e-08  -3.3406456745236906e-08  -9.2296568798400012e-08  1.0034838740621717e-07  5.3320646432997384e-07  7.1867875037815097e-07  4.1171412259242829e-07  1.8995576977843115e-08  -8.1762224221480699e-08  -1.1562570560589901e-08  1.5438684798192738e-08  4.6463552406867795e-10  -2.7472235772116442e-09  5.7211432350332922e-10  2.8169851724144628e-10  -1.8398224107879468e-10  2.4685727075887546e-11  1.7707266132702099e-11  -1.1300527765220280e-11  2.6561532234324814e-12  2.9890574848463759e-13  -5.1359959758620612e-13  2.2853971888573511e-13  -5.6490073498783321e-14  2.3854676756843074e-15  5.5922576249003774e-15  -3.5194186621624174e-15  1.4255221193278362e-15  -4.5914519949011862e-16  1.2488110333728207e-16  -2.9248402839034025e-17  5.9396100662929455e-18  -9.4417508550891739e-19  0.0000000000000000e+00  0.0000000000000000e+00  -2.6946304085093343e-10  5.3565963623168818e-10  3.8103250369445429e-10  -4.1966772322309817e-09  6.2416458268216740e-09  1.3807841627603865e-08  -5.2743424394568654e-08  -2.9320309212222248e-08  2.8454012351173692e-07  1.9590960192319777e-07  -1.1588595855741448e-06  -2.6784574106659811e-06  -2.3872454393324943e-06  -7.1310104638822578e-07  2.9012741990805947e-07  1.8177048610833714e-07  -5.2511568390629164e-08  -2.7991242141476135e-08  1.3739691500396185e-08  1.4791720671286082e-09  -2.6490282634813732e-09  6.5169535066937844e-10  1.6206793097367094e-10  -1.6364581223467759e-10  4.8398095927827072e-11  6.3517591519149727e-13  -7.0128777911565974e-12  3.5059046799768813e-12  -9.3992362104659525e-13  6.6571489756721403e-14  7.9252602686418470e-14  -5.3588392467521799e-14  2.2193920499552646e-14  -7.2127347999842179e-15  1.9660789150857085e-15  -4.5914519949011774e-16  9.1605618047194722e-17  -1.5193021989581487e-17  1.5696012463960422e-18  0.0000000000000000e+00  0.0000000000000000e+00  1.4517881583505514e-10  1.0011367025995049e-09  -4.0973155189627978e-09  4.7788111232767966e-09  1.3807841627603870e-08  -5.6974147586019223e-08  1.5428888050870009e-08  3.0032438391291654e-07  -3.2263004398997894e-07  -1.4670918986715103e-06  1.0671608891562990e-06  7.8475873179063664e-06  1.0989396676869271e-05  6.1219975662014548e-06  2.9905411261295017e-08  -1.2288836347722949e-06  -5.7927707560552544e-08  2.2498185454287397e-07  -2.5206657673767135e-08  -3.1719574720926826e-08  1.3149783772077975e-08  5.4445943309878768e-10  -2.2073854170649639e-09  8.3593715052767302e-10  -5.5360486454677226e-11  -9.1122112187801738e-11  5.3081569767116114e-11  -1.5533250569000175e-11  1.5246196414827196e-12  1.1000656941923761e-12  -8.1337470046028379e-13  3.4553009648844013e-13  -1.1341631675478341e-13  3.0985705721755530e-14  -7.2127347999842179e-15  1.4255221193278348e-15  -2.3073130275443887e-16  2.6780903474863659e-17  1.1083656556800063e-19  0.0000000000000000e+00  0.0000000000000000e+00  1.3258351179025618e-09  -2.8842778691721387e-09  2.5423870892811515e-10  1.8317148872476777e-08  -5.2743424394568687e-08  1.5428888050869976e-08  2.8572088182337729e-07  -5.7027049944196283e-07  -9.0565359949698895e-07  3.7380607394524230e-06  4.1559161454122339e-06  -1.5823159663260522e-05  -4.0616667077348931e-05  -3.6413352448177683e-05  -9.7554428015781453e-06  4.9651153362027914e-06  2.2653428046668817e-06  -9.9991448820318138e-07  -2.4666848870015377e-07  2.2073250896140705e-07  -2.3466057121364795e-08  -2.6384354099751914e-08  1.3663489115164216e-08  -1.8922716191031930e-09  -1.0888998573912482e-09  7.8926811076714505e-10  -2.5472640823341176e-10  3.1848426427986863e-11  1.4814666372372113e-11  -1.2294888026073317e-11  5.3790810200245744e-12  -1.7855298539298326e-12  4.8903519250837692e-13  -1.1341631675478360e-13  2.2193920499552693e-14  -3.5194186621624225e-15  3.8909478008739366e-16  -3.7925459618849554e-18  -1.3386894197233580e-17  0.0000000000000000e+00  0.0000000000000000e+00  1.8241188721510910e-10  -5.6341243704253650e-09  2.0467928169263721e-08  -3.3406456745236952e-08  -2.9320309212222268e-08  3.0032438391291670e-07  -5.7027049944196283e-07  -6.1524492307432752e-07  4.3814342276639119e-06  -1.7675209459652068e-06  -2.2569481891698996e-05  8.6126824173089051e-06  1.1517104301081763e-04  1.6902020544650768e-04  9.0833329966209171e-05  -4.0512359380740129e-06  -1.8029298286157516e-05  1.0633500615578990e-06  2.9696083302585431e-06  -8.1563380624064587e-07  -2.4171300819044447e-07  2.0852046177368937e-07  -4.4962019286166361e-08  -1.0982363308479909e-08  1.1432769519150396e-08  -4.1380433819221217e-09  6.3064765550229776e-10  1.9034734098567057e-10  -1.8484921760535775e-10  8.3725420145185523e-11  -2.8148561156735414e-11  7.7310415883401225e-12  -1.7855298539298253e-12  3.4553009648843907e-13  -5.3588392467521585e-14  5.5922576249003364e-15  3.8805839266031912e-17  -2.0309960199834652e-16  6.0534172295498246e-17  0.0000000000000000e+00  0.0000000000000000e+00  -5.5033008344266388e-09  8.4008816345844881e-09  7.7730705218662205e-09  -9.2296568798400104e-08  2.8454012351173729e-07  -3.2263004398997915e-07  -9.0565359949698959e-07  4.3814342276639144e-06  -3.9140795853590694e-06  -1.9257682891582446e-05  4.4419321510484214e-05  8.0629381284322749e-05  -2.0955108179731817e-04  -6.1866480838241960e-04  -5.5818541603731516e-04  -1.2860389429447742e-04  8.3858711602467323e-05  2.4732106700381745e-05  -1.7185372369992411e-05  -5.0529362770506633e-07  2.8683132056682053e-06  -9.1205068879337126e-07  -6.4322400674973021e-08  1.5907910083285188e-07  -6.6399277730597744e-08  1.2054048911941961e-08  2.2541931833137146e-09  -2.7590493745607424e-09  1.3027611163298449e-09  -4.4447030220127667e-10  1.2245584225885167e-10  -2.8148561156735544e-11  5.3790810200245833e-12  -8.1337470046028742e-13  7.9252602686419139e-14  2.3854676756841626e-15  -3.3755056776509997e-15  9.5126221427607575e-16  -1.6153060533696078e-16  0.0000000000000000e+00  0.0000000000000000e+00  -1.0981102198825963e-08  3.6006075523406598e-08  -8.3258276706080231e-08  1.0034838740621726e-07  1.9590960192319809e-07  -1.4670918986715124e-06  3.7380607394524268e-06  -1.7675209459652085e-06  -1.9257682891582453e-05  5.3429334393473712e-05  2.4073541357365977e-05  -3.3106821182085302e-04  2.0773394313109098e-06  1.6820033714985659e-03  2.6202691175524553e-03  1.3421558082053412e-03  -1.4164202868145536e-04  -2.5352725794416844e-04  4.6885656870452985e-05  3.2251512917609054e-05  -1.6482466677336426e-05  8.5883526951579253e-07  2.0682570834116390e-06  -1.0470811415228578e-06  2.2451954992891473e-07  2.2473037902664725e-08  -4.0767761534489990e-08  2.0259232011400492e-08  -7.0316031256593748e-09  1.9441274865016292e-09  -4.4447030220127599e-10  8.3725420145185691e-11  -1.2294888026073293e-11  1.1000656941923745e-12  6.6571489756721832e-14  -5.6490073498783296e-14  1.4759427591495919e-14  -2.5250772987767644e-15  2.1672619761455625e-16  0.0000000000000000e+00  0.0000000000000000e+00  -9.6793346232211214e-09  4.7005608593028901e-08  -1.7718597935184736e-07  5.3320646432997352e-07  -1.1588595855741450e-06  1.0671608891562986e-06  4.1559161454122398e-06  -2.2569481891699023e-05  4.4419321510484247e-05  2.4073541357365950e-05  -3.3241621232632003e-04  4.2059430498042123e-04  1.4701648047913164e-03  -2.6265451147955052e-03  -9.4801319895655642e-03  -8.6136487119166036e-03  -1.5800913783595002e-03  1.3908291028259677e-03  1.8654741443195746e-04  -2.6131603487189741e-04  4.4281707471516325e-05  2.3525431894623912e-05  -1.6077581518653434e-05  4.0945626359095328e-06  1.2243316781441232e-07  -5.9362175926752325e-07  3.1474573006861131e-07  -1.1149557569187389e-07  3.0951676941701539e-08  -7.0316031256593740e-09  1.3027611163298439e-09  -1.8484921760535837e-10  1.4814666372372149e-11  1.5246196414827056e-12  -9.3992362104659181e-13  2.2853971888573395e-13  -3.6421773666212170e-14  3.1348927015414222e-15  3.3853930238469284e-16  0.0000000000000000e+00  0.0000000000000000e+00  -3.3361901445335636e-09  2.7529861131934111e-08  -1.5706372639037482e-07  7.1867875037815044e-07  -2.6784574106659798e-06  7.8475873179063698e-06  -1.5823159663260519e-05  8.6126824173088915e-06  8.0629381284322871e-05  -3.3106821182085335e-04  4.2059430498042155e-04  1.1183022631483009e-03  -4.4653438523162142e-03  -2.1971995904830318e-03  2.4341787264763128e-02  4.1086197725707409e-02  1.9668174738369220e-02  -3.6065982802244061e-03  -3.2741726635802421e-03  1.1466978022136342e-03  1.8488339262188625e-04  -2.3594757592154699e-04  7.3184899740431203e-05  -2.2509931891016307e-06  -8.4513544141584071e-06  4.8819073224585073e-06  -1.7728668637085369e-06  4.9447249547378529e-07  -1.1149557569187402e-07  2.0259232011400528e-08  -2.7590493745607478e-09  1.9034734098567210e-10  3.1848426427986656e-11  -1.5533250569000146e-11  3.5059046799768740e-12  -5.1359959758620450e-13  3.4807444486443155e-14  6.5870891807435224e-15  -2.8843851175245943e-15  0.0000000000000000e+00  0.0000000000000000e+00  9.0289363794515810e-10  2.2266661422870252e-09  -5.0970802958610721e-08  4.1171412259242770e-07  -2.3872454393324922e-06  1.0989396676869271e-05  -4.0616667077348945e-05  1.1517104301081766e-04  -2.0955108179731817e-04  2.0773394313104575e-06  1.4701648047913188e-03  -4.4653438523162177e-03  1.3352204836901652e-03  2.5232616748882448e-02  -2.9231342906172967e-02  -1.4651739048785586e-01  -1.3417995321102266e-01  -1.6423548897320676e-02  2.2332029041447411e-02  -8.0980810024743868e-04  -3.1687369600840324e-03  1.2771235475567703e-03  -1.1223829649095054e-04  -1.1589800459941779e-04  7.5511459574073841e-05  -2.8289136290247879e-05  7.9340639663004205e-06  -1.7728668637085295e-06  3.1474573006861026e-07  -4.0767761534489805e-08  2.2541931833136882e-09  6.3064765550230138e-10  -2.5472640823341098e-10  5.3081569767115901e-11  -7.0128777911565481e-12  2.9890574848462971e-13  1.3704029419549243e-13  -4.7359110902870203e-14  8.0409119474997160e-15  0.0000000000000000e+00  0.0000000000000000e+00  9.1472561386496542e-10  -5.3367546274942465e-09  1.6747552085475906e-08  1.8995576977842946e-08  -7.1310104638822472e-07  6.1219975662014505e-06  -3.6413352448177670e-05  1.6902020544650774e-04  -6.1866480838241992e-04  1.6820033714985670e-03  -2.6265451147955044e-03  -2.1971995904830417e-03  2.5232616748882473e-02  -4.9578361042670653e-02  -7.2676738086877052e-02  3.4562415100051647e-01  6.5574456149015914e-01  2.8299747298770045e-01  -8.1672717508530002e-02  -3.3950579698845879e-02  2.1461570357905354e-02  -3.2043837284008040e-03  -1.4812121395989108e-03  1.1622435964402573e-03  -4.5345690493624381e-04  1.2803339882863491e-04  -2.8289136290248018e-05  4.8819073224585149e-06  -5.9362175926752632e-07  2.2473037902665354e-08  1.2054048911941819e-08  -4.1380433819221093e-09  7.8926811076714029e-10  -9.1122112187801195e-11  6.3517591519142800e-13  2.6561532234324818e-12  -7.4392250572147466e-13  1.1875436805346505e-13  -7.2796692367617161e-15  0.0000000000000000e+00  0.0000000000000000e+00  -8.6824289067156718e-11  -1.2130560365958349e-09  1.3642433511438498e-08  -8.1762224221480779e-08  2.9012741990806006e-07  2.9905411261291087e-08  -9.7554428015781249e-06  9.0833329966209117e-05  -5.5818541603731495e-04  2.6202691175524562e-03  -9.4801319895655711e-03  2.4341787264763139e-02  -2.9231342906172960e-02  -7.2676738086877135e-02  3.9412594449316318e-01  -2.2156315945568605e-01  -2.2945261164729338e+00  -2.1205574135070440e+00  -8.1742736603649183e-02  3.3231347989467047e-01  -7.7708230188995239e-02  -1.6044029831097057e-02  1.7722517001173773e-02  -7.3131996687520401e-03  2.0821612026265929e-03  -4.5345690493624305e-04  7.5511459574073962e-05  -8.4513544141583834e-06  1.2243316781440957e-07  2.2451954992891502e-07  -6.6399277730597678e-08  1.1432769519150417e-08  -1.0888998573912457e-09  -5.5360486454677362e-11  4.8398095927827091e-11  -1.1300527765220262e-11  1.5342776127974676e-12  -5.8938746993750471e-14  -3.2041994813488526e-14  0.0000000000000000e+00  0.0000000000000000e+00  -1.7532476159677299e-10  9.9081017788881152e-10  -2.4241974994813975e-09  -1.1562570560589843e-08  1.8177048610833698e-07  -1.2288836347722953e-06  4.9651153362027982e-06  -4.0512359380740637e-06  -1.2860389429447718e-04  1.3421558082053404e-03  -8.6136487119166036e-03  4.1086197725707409e-02  -1.4651739048785589e-01  3.4562415100051652e-01  -2.2156315945568539e-01  -1.7916470180229158e+00  4.6746736217877798e+00  1.0798226999808076e+01  3.8782598580453369e+00  -1.7308248356900688e+00  -8.5586188730741489e-02  2.6494446171548158e-01  -1.1897384164687295e-01  3.4240494468948501e-02  -7.3131996687520401e-03  1.1622435964402562e-03  -1.1589800459941814e-04  -2.2509931891015761e-06  4.0945626359095167e-06  -1.0470811415228529e-06  1.5907910083285082e-07  -1.0982363308479775e-08  -1.8922716191032141e-09  8.3593715052767581e-10  -1.6364581223467785e-10  1.7707266132702089e-11  3.3713489810024427e-13  -6.3266571751278491e-13  1.4595309685431099e-13  0.0000000000000000e+00  0.0000000000000000e+00  2.9373635342224875e-11  1.6762880253328966e-10  -2.4413329893258720e-09  1.5438684798192735e-08  -5.2511568390629224e-08  -5.7927707560552042e-08  2.2653428046668805e-06  -1.8029298286157520e-05  8.3858711602467404e-05  -1.4164202868145569e-04  -1.5800913783594976e-03  1.9668174738369223e-02  -1.3417995321102269e-01  6.5574456149015947e-01  -2.2945261164729356e+00  4.6746736217877780e+00  1.9317195088828403e+00  -3.6771899578854743e+01  -3.4361285315199872e+01  2.9999641933244896e+00  3.7631879287691397e+00  -1.9615373497299207e+00  5.7292529213072008e-01  -1.1897384164687314e-01  1.7722517001173811e-02  -1.4812121395989168e-03  -1.1223829649094958e-04  7.3184899740430891e-05  -1.6077581518653396e-05  2.0682570834116335e-06  -6.4322400674972730e-08  -4.4962019286166493e-08  1.3663489115164189e-08  -2.2073854170649601e-09  1.6206793097366982e-10  2.4685727075887694e-11  -1.1340790974831115e-11  2.1872177472857732e-12  -1.9538940700840035e-13  0.0000000000000000e+00  0.0000000000000000e+00  2.6984882863658261e-11  -1.9847690438058600e-10  7.2047378815420015e-10  4.6463552406867205e-10  -2.7991242141476111e-08  2.2498185454287403e-07  -9.9991448820318223e-07  1.0633500615579059e-06  2.4732106700381711e-05  -2.5352725794416849e-04  1.3908291028259688e-03  -3.6065982802244148e-03  -1.6423548897320638e-02  2.8299747298770034e-01  -2.1205574135070444e+00  1.0798226999808085e+01  -3.6771899578854736e+01  5.2238141980369775e+01  1.9068075272215810e+02  4.3529374250381935e+01  -3.3102479188604519e+01  9.8852640893514181e+00  -1.9615373497299127e+00  2.6494446171548058e-01  -1.6044029831096911e-02  -3.2043837284008109e-03  1.2771235475567721e-03  -2.3594757592154621e-04  2.3525431894623773e-05  8.5883526951581699e-07  -9.1205068879337349e-07  2.0852046177369016e-07  -2.6384354099751917e-08  5.4445943309879067e-10  6.5169535066937709e-10  -1.8398224107879401e-10  2.7650562429080886e-11  -1.5164482525797203e-12  -4.4817199011514063e-13  0.0000000000000000e+00  0.0000000000000000e+00  -1.0493368714968552e-11  9.0612554951409197e-12  2.8888075229205980e-10  -2.7472235772116438e-09  1.3739691500396193e-08  -2.5206657673767218e-08  -2.4666848870015335e-07  2.9696083302585427e-06  -1.7185372369992418e-05  4.6885656870453053e-05  1.8654741443195735e-04  -3.2741726635802442e-03  2.2332029041447425e-02  -8.1672717508530099e-02  -8.1742736603648128e-02  3.8782598580453347e+00  -3.4361285315199858e+01  1.9068075272215805e+02  -6.2021232352675497e+02  -5.8815239724788626e+02  1.8270844963823990e+02  -3.3102479188604654e+01  3.7631879287691490e+00  -8.5586188730744278e-02  -7.7708230188994670e-02  2.1461570357905219e-02  -3.1687369600840198e-03  1.8488339262188316e-04  4.4281707471516732e-05  -1.6482466677336470e-05  2.8683132056682062e-06  -2.4171300819044489e-07  -2.3466057121364834e-08  1.3149783772077990e-08  -2.649028263481373