<?xml version="1.0"?>
<VTKFile type="UnstructuredGrid"  version="0.1"  >
<UnstructuredGrid>
<Piece  NumberOfPoints="1681" NumberOfCells="3200">
<Points>
<DataArray  type="Float64"  NumberOfComponents="3"  format="ascii">-2 -2 0  -1.9 -2 0  -1.8 -2 0  -1.7 -2 0  -1.6 -2 0  -1.5 -2 0  -1.4 -2 0  -1.3 -2 0  -1.2 -2 0  -1.1 -2 0  -1 -2 0  -0.8999999999999999 -2 0  -0.8 -2 0  -0.7 -2 0  -0.6000000000000001 -2 0  -0.5 -2 0  -0.3999999999999999 -2 0  -0.3 -2 0  -0.2 -2 0  -0.1000000000000001 -2 0  0 -2 0  0.1000000000000001 -2 0  0.2000000000000002 -2 0  0.2999999999999998 -2 0  0.3999999999999999 -2 0  0.5 -2 0  0.6000000000000001 -2 0  0.7000000000000002 -2 0  0.7999999999999998 -2 0  0.8999999999999999 -2 0  1 -2 0  1.1 -2 0  1.2 -2 0  1.3 -2 0  1.4 -2 0  1.5 -2 0  1.6 -2 0  1.7 -2 0  1.8 -2 0  1.9 -2 0  2 -2 0  -2 -1.9 0  -1.9 -1.9 0  -1.8 -1.9 0  -1.7 -1.9 0  -1.6 -1.9 0  -1.5 -1.9 0  -1.4 -1.9 0  -1.3 -1.9 0  -1.2 -1.9 0  -1.1 -1.9 0  -1 -1.9 0  -0.8999999999999999 -1.9 0  -0.8 -1.9 0  -0.7 -1.9 0  -0.6000000000000001 -1.9 0  -0.5 -1.9 0  -0.3999999999999999 -1.9 0  -0.3 -1.9 0  -0.2 -1.9 0  -0.1000000000000001 -1.9 0  0 -1.9 0  0.1000000000000001 -1.9 0  0.2000000000000002 -1.9 0  0.2999999999999998 -1.9 0  0.3999999999999999 -1.9 0  0.5 -1.9 0  0.6000000000000001 -1.9 0  0.7000000000000002 -1.9 0  0.7999999999999998 -1.9 0  0.8999999999999999 -1.9 0  1 -1.9 0  1.1 -1.9 0  1.2 -1.9 0  1.3 -1.9 0  1.4 -1.9 0  1.5 -1.9 0  1.6 -1.9 0  1.7 -1.9 0  1.8 -1.9 0  1.9 -1.9 0  2 -1.9 0  -2 -1.8 0  -1.9 -1.8 0  -1.8 -1.8 0  -1.7 -1.8 0  -1.6 -1.8 0  -1.5 -1.8 0  -1.4 -1.8 0  -1.3 -1.8 0  -1.2 -1.8 0  -1.1 -1.8 0  -1 -1.8 0  -0.8999999999999999 -1.8 0  -0.8 -1.8 0  -0.7 -1.8 0  -0.6000000000000001 -1.8 0  -0.5 -1.8 0  -0.3999999999999999 -1.8 0  -0.3 -1.8 0  -0.2 -1.8 0  -0.1000000000000001 -1.8 0  0 -1.8 0  0.1000000000000001 -1.8 0  0.2000000000000002 -1.8 0  0.2999999999999998 -1.8 0  0.3999999999999999 -1.8 0  0.5 -1.8 0  0.6000000000000001 -1.8 0  0.7000000000000002 -1.8 0  0.7999999999999998 -1.8 0  0.8999999999999999 -1.8 0  1 -1.8 0  1.1 -1.8 0  1.2 -1.8 0  1.3 -1.8 0  1.4 -1.8 0  1.5 -1.8 0  1.6 -1.8 0  1.7 -1.8 0  1.8 -1.8 0  1.9 -1.8 0  2 -1.8 0  -2 -1.7 0  -1.9 -1.7 0  -1.8 -1.7 0  -1.7 -1.7 0  -1.6 -1.7 0  -1.5 -1.7 0  -1.4 -1.7 0  -1.3 -1.7 0  -1.2 -1.7 0  -1.1 -1.7 0  -1 -1.7 0  -0.8999999999999999 -1.7 0  -0.8 -1.7 0  -0.7 -1.7 0  -0.6000000000000001 -1.7 0  -0.5 -1.7 0  -0.3999999999999999 -1.7 0  -0.3 -1.7 0  -0.2 -1.7 0  -0.1000000000000001 -1.7 0  0 -1.7 0  0.1000000000000001 -1.7 0  0.2000000000000002 -1.7 0  0.2999999999999998 -1.7 0  0.3999999999999999 -1.7 0  0.5 -1.7 0  0.6000000000000001 -1.7 0  0.7000000000000002 -1.7 0  0.7999999999999998 -1.7 0  0.8999999999999999 -1.7 0  1 -1.7 0  1.1 -1.7 0  1.2 -1.7 0  1.3 -1.7 0  1.4 -1.7 0  1.5 -1.7 0  1.6 -1.7 0  1.7 -1.7 0  1.8 -1.7 0  1.9 -1.7 0  2 -1.7 0  -2 -1.6 0  -1.9 -1.6 0  -1.8 -1.6 0  -1.7 -1.6 0  -1.6 -1.6 0  -1.5 -1.6 0  -1.4 -1.6 0  -1.3 -1.6 0  -1.2 -1.6 0  -1.1 -1.6 0  -1 -1.6 0  -0.8999999999999999 -1.6 0  -0.8 -1.6 0  -0.7 -1.6 0  -0.6000000000000001 -1.6 0  -0.5 -1.6 0  -0.3999999999999999 -1.6 0  -0.3 -1.6 0  -0.2 -1.6 0  -0.1000000000000001 -1.6 0  0 -1.6 0  0.1000000000000001 -1.6 0  0.2000000000000002 -1.6 0  0.2999999999999998 -1.6 0  0.3999999999999999 -1.6 0  0.5 -1.6 0  0.6000000000000001 -1.6 0  0.7000000000000002 -1.6 0  0.7999999999999998 -1.6 0  0.8999999999999999 -1.6 0  1 -1.6 0  1.1 -1.6 0  1.2 -1.6 0  1.3 -1.6 0  1.4 -1.6 0  1.5 -1.6 0  1.6 -1.6 0  1.7 -1.6 0  1.8 -1.6 0  1.9 -1.6 0  2 -1.6 0  -2 -1.5 0  -1.9 -1.5 0  -1.8 -1.5 0  -1.7 -1.5 0  -1.6 -1.5 0  -1.5 -1.5 0  -1.4 -1.5 0  -1.3 -1.5 0  -1.2 -1.5 0  -1.1 -1.5 0  -1 -1.5 0  -0.8999999999999999 -1.5 0  -0.8 -1.5 0  -0.7 -1.5 0  -0.6000000000000001 -1.5 0  -0.5 -1.5 0  -0.3999999999999999 -1.5 0  -0.3 -1.5 0  -0.2 -1.5 0  -0.1000000000000001 -1.5 0  0 -1.5 0  0.1000000000000001 -1.5 0  0.2000000000000002 -1.5 0  0.2999999999999998 -1.5 0  0.3999999999999999 -1.5 0  0.5 -1.5 0  0.6000000000000001 -1.5 0  0.7000000000000002 -1.5 0  0.7999999999999998 -1.5 0  0.8999999999999999 -1.5 0  1 -1.5 0  1.1 -1.5 0  1.2 -1.5 0  1.3 -1.5 0  1.4 -1.5 0  1.5 -1.5 0  1.6 -1.5 0  1.7 -1.5 0  1.8 -1.5 0  1.9 -1.5 0  2 -1.5 0  -2 -1.4 0  -1.9 -1.4 0  -1.8 -1.4 0  -1.7 -1.4 0  -1.6 -1.4 0  -1.5 -1.4 0  -1.4 -1.4 0  -1.3 -1.4 0  -1.2 -1.4 0  -1.1 -1.4 0  -1 -1.4 0  -0.8999999999999999 -1.4 0  -0.8 -1.4 0  -0.7 -1.4 0  -0.6000000000000001 -1.4 0  -0.5 -1.4 0  -0.3999999999999999 -1.4 0  -0.3 -1.4 0  -0.2 -1.4 0  -0.1000000000000001 -1.4 0  0 -1.4 0  0.1000000000000001 -1.4 0  0.2000000000000002 -1.4 0  0.2999999999999998 -1.4 0  0.3999999999999999 -1.4 0  0.5 -1.4 0  0.6000000000000001 -1.4 0  0.7000000000000002 -1.4 0  0.7999999999999998 -1.4 0  0.8999999999999999 -1.4 0  1 -1.4 0  1.1 -1.4 0  1.2 -1.4 0  1.3 -1.4 0  1.4 -1.4 0  1.5 -1.4 0  1.6 -1.4 0  1.7 -1.4 0  1.8 -1.4 0  1.9 -1.4 0  2 -1.4 0  -2 -1.3 0  -1.9 -1.3 0  -1.8 -1.3 0  -1.7 -1.3 0  -1.6 -1.3 0  -1.5 -1.3 0  -1.4 -1.3 0  -1.3 -1.3 0  -1.2 -1.3 0  -1.1 -1.3 0  -1 -1.3 0  -0.8999999999999999 -1.3 0  -0.8 -1.3 0  -0.7 -1.3 0  -0.6000000000000001 -1.3 0  -0.5 -1.3 0  -0.3999999999999999 -1.3 0  -0.3 -1.3 0  -0.2 -1.3 0  -0.1000000000000001 -1.3 0  0 -1.3 0  0.1000000000000001 -1.3 0  0.2000000000000002 -1.3 0  0.2999999999999998 -1.3 0  0.3999999999999999 -1.3 0  0.5 -1.3 0  0.6000000000000001 -1.3 0  0.7000000000000002 -1.3 0  0.7999999999999998 -1.3 0  0.8999999999999999 -1.3 0  1 -1.3 0  1.1 -1.3 0  1.2 -1.3 0  1.3 -1.3 0  1.4 -1.3 0  1.5 -1.3 0  1.6 -1.3 0  1.7 -1.3 0  1.8 -1.3 0  1.9 -1.3 0  2 -1.3 0  -2 -1.2 0  -1.9 -1.2 0  -1.8 -1.2 0  -1.7 -1.2 0  -1.6 -1.2 0  -1.5 -1.2 0  -1.4 -1.2 0  -1.3 -1.2 0  -1.2 -1.2 0  -1.1 -1.2 0  -1 -1.2 0  -0.8999999999999999 -1.2 0  -0.8 -1.2 0  -0.7 -1.2 0  -0.6000000000000001 -1.2 0  -0.5 -1.2 0  -0.3999999999999999 -1.2 0  -0.3 -1.2 0  -0.2 -1.2 0  -0.1000000000000001 -1.2 0  0 -1.2 0  0.1000000000000001 -1.2 0  0.2000000000000002 -1.2 0  0.2999999999999998 -1.2 0  0.3999999999999999 -1.2 0  0.5 -1.2 0  0.6000000000000001 -1.2 0  0.7000000000000002 -1.2 0  0.7999999999999998 -1.2 0  0.8999999999999999 -1.2 0  1 -1.2 0  1.1 -1.2 0  1.2 -1.2 0  1.3 -1.2 0  1.4 -1.2 0  1.5 -1.2 0  1.6 -1.2 0  1.7 -1.2 0  1.8 -1.2 0  1.9 -1.2 0  2 -1.2 0  -2 -1.1 0  -1.9 -1.1 0  -1.8 -1.1 0  -1.7 -1.1 0  -1.6 -1.1 0  -1.5 -1.1 0  -1.4 -1.1 0  -1.3 -1.1 0  -1.2 -1.1 0  -1.1 -1.1 0  -1 -1.1 0  -0.8999999999999999 -1.1 0  -0.8 -1.1 0  -0.7 -1.1 0  -0.6000000000000001 -1.1 0  -0.5 -1.1 0  -0.3999999999999999 -1.1 0  -0.3 -1.1 0  -0.2 -1.1 0  -0.1000000000000001 -1.1 0  0 -1.1 0  0.1000000000000001 -1.1 0  0.2000000000000002 -1.1 0  0.2999999999999998 -1.1 0  0.3999999999999999 -1.1 0  0.5 -1.1 0  0.6000000000000001 -1.1 0  0.7000000000000002 -1.1 0  0.7999999999999998 -1.1 0  0.8999999999999999 -1.1 0  1 -1.1 0  1.1 -1.1 0  1.2 -1.1 0  1.3 -1.1 0  1.4 -1.1 0  1.5 -1.1 0  1.6 -1.1 0  1.7 -1.1 0  1.8 -1.1 0  1.9 -1.1 0  2 -1.1 0  -2 -1 0  -1.9 -1 0  -1.8 -1 0  -1.7 -1 0  -1.6 -1 0  -1.5 -1 0  -1.4 -1 0  -1.3 -1 0  -1.2 -1 0  -1.1 -1 0  -1 -1 0  -0.8999999999999999 -1 0  -0.8 -1 0  -0.7 -1 0  -0.6000000000000001 -1 0  -0.5 -1 0  -0.3999999999999999 -1 0  -0.3 -1 0  -0.2 -1 0  -0.1000000000000001 -1 0  0 -1 0  0.1000000000000001 -1 0  0.2000000000000002 -1 0  0.2999999999999998 -1 0  0.3999999999999999 -1 0  0.5 -1 0  0.6000000000000001 -1 0  0.7000000000000002 -1 0  0.7999999999999998 -1 0  0.8999999999999999 -1 0  1 -1 0  1.1 -1 0  1.2 -1 0  1.3 -1 0  1.4 -1 0  1.5 -1 0  1.6 -1 0  1.7 -1 0  1.8 -1 0  1.9 -1 0  2 -1 0  -2 -0.8999999999999999 0  -1.9 -0.8999999999999999 0  -1.8 -0.8999999999999999 0  -1.7 -0.8999999999999999 0  -1.6 -0.8999999999999999 0  -1.5 -0.8999999999999999 0  -1.4 -0.8999999999999999 0  -1.3 -0.8999999999999999 0  -1.2 -0.8999999999999999 0  -1.1 -0.8999999999999999 0  -1 -0.8999999999999999 0  -0.8999999999999999 -0.8999999999999999 0  -0.8 -0.8999999999999999 0  -0.7 -0.8999999999999999 0  -0.6000000000000001 -0.8999999999999999 0  -0.5 -0.8999999999999999 0  -0.3999999999999999 -0.8999999999999999 0  -0.3 -0.8999999999999999 0  -0.2 -0.8999999999999999 0  -0.1000000000000001 -0.8999999999999999 0  0 -0.8999999999999999 0  0.1000000000000001 -0.8999999999999999 0  0.2000000000000002 -0.8999999999999999 0  0.2999999999999998 -0.8999999999999999 0  0.3999999999999999 -0.8999999999999999 0  0.5 -0.8999999999999999 0  0.6000000000000001 -0.8999999999999999 0  0.7000000000000002 -0.8999999999999999 0  0.7999999999999998 -0.8999999999999999 0  0.8999999999999999 -0.8999999999999999 0  1 -0.8999999999999999 0  1.1 -0.8999999999999999 0  1.2 -0.8999999999999999 0  1.3 -0.8999999999999999 0  1.4 -0.8999999999999999 0  1.5 -0.8999999999999999 0  1.6 -0.8999999999999999 0  1.7 -0.8999999999999999 0  1.8 -0.8999999999999999 0  1.9 -0.8999999999999999 0  2 -0.8999999999999999 0  -2 -0.8 0  -1.9 -0.8 0  -1.8 -0.8 0  -1.7 -0.8 0  -1.6 -0.8 0  -1.5 -0.8 0  -1.4 -0.8 0  -1.3 -0.8 0  -1.2 -0.8 0  -1.1 -0.8 0  -1 -0.8 0  -0.8999999999999999 -0.8 0  -0.8 -0.8 0  -0.7 -0.8 0  -0.6000000000000001 -0.8 0  -0.5 -0.8 0  -0.3999999999999999 -0.8 0  -0.3 -0.8 0  -0.2 -0.8 0  -0.1000000000000001 -0.8 0  0 -0.8 0  0.1000000000000001 -0.8 0  0.2000000000000002 -0.8 0  0.2999999999999998 -0.8 0  0.3999999999999999 -0.8 0  0.5 -0.8 0  0.6000000000000001 -0.8 0  0.7000000000000002 -0.8 0  0.7999999999999998 -0.8 0  0.8999999999999999 -0.8 0  1 -0.8 0  1.1 -0.8 0  1.2 -0.8 0  1.3 -0.8 0  1.4 -0.8 0  1.5 -0.8 0  1.6 -0.8 0  1.7 -0.8 0  1.8 -0.8 0  1.9 -0.8 0  2 -0.8 0  -2 -0.7 0  -1.9 -0.7 0  -1.8 -0.7 0  -1.7 -0.7 0  -1.6 -0.7 0  -1.5 -0.7 0  -1.4 -0.7 0  -1.3 -0.7 0  -1.2 -0.7 0  -1.1 -0.7 0  -1 -0.7 0  -0.8999999999999999 -0.7 0  -0.8 -0.7 0  -0.7 -0.7 0  -0.6000000000000001 -0.7 0  -0.5 -0.7 0  -0.3999999999999999 -0.7 0  -0.3 -0.7 0  -0.2 -0.7 0  -0.1000000000000001 -0.7 0  0 -0.7 0  0.1000000000000001 -0.7 0  0.2000000000000002 -0.7 0  0.2999999999999998 -0.7 0  0.3999999999999999 -0.7 0  0.5 -0.7 0  0.600000000000000
[...]
<PointData  Scalars="f_1726"> 
<DataArray  type="Float64"  Name="f_1726"  format="ascii">0.0000000000000000e+00  0.0000000000000000e+00  0.0000000000000000e+00  0.0000000000000000e+00  0.0000000000000000e+00  0.0000000000000000e+00  0.0000000000000000e+00  0.0000000000000000e+00  0.0000000000000000e+00  0.0000000000000000e+00  0.0000000000000000e+00  0.0000000000000000e+00  0.0000000000000000e+00  0.0000000000000000e+00  0.0000000000000000e+00  0.0000000000000000e+00  0.0000000000000000e+00  0.0000000000000000e+00  0.0000000000000000e+00  0.0000000000000000e+00  0.0000000000000000e+00  0.0000000000000000e+00  0.0000000000000000e+00  0.0000000000000000e+00  0.0000000000000000e+00  0.0000000000000000e+00  0.0000000000000000e+00  0.0000000000000000e+00  0.0000000000000000e+00  0.0000000000000000e+00  0.0000000000000000e+00  0.0000000000000000e+00  0.0000000000000000e+00  0.0000000000000000e+00  0.0000000000000000e+00  0.0000000000000000e+00  0.0000000000000000e+00  0.0000000000000000e+00  0.0000000000000000e+00  0.0000000000000000e+00  0.0000000000000000e+00  0.0000000000000000e+00  -4.7226300744777556e-11  -5.5035605136328290e-11  3.6165461587360878e-10  -8.7148508352893921e-11  -1.8316543085892047e-09  9.8684184183633993e-10  9.0122623069800916e-09  1.2399307827164219e-09  -3.7408264424717267e-08  -7.4643198161876260e-08  -6.5794533123774213e-08  -2.2677496079650539e-08  6.1373501052966382e-09  6.2177770521766388e-09  -5.9018143140464190e-10  -1.1917565910597573e-09  1.9966502850859458e-10  1.8342766714095546e-10  -7.1327867293755996e-11  -1.3031377339452647e-11  1.5529500551696852e-11  -3.0464146552013169e-12  -1.3281444760270772e-12  9.9210495755158527e-13  -2.1780299691780887e-13  -4.9482992103526500e-14  5.4657480918772428e-14  -1.9606386135407598e-14  2.3011948869927985e-15  1.4731796701739879e-15  -1.0979918741366164e-15  4.1147638337262111e-16  -9.0996384355935916e-17  7.5340303527631254e-19  1.0669243828947708e-17  -6.4179575721172387e-18  2.6112698886530514e-18  -8.6561074911102896e-19  2.7439294988160047e-19  0.0000000000000000e+00  0.0000000000000000e+00  -5.5035605136328316e-11  3.9579403452251622e-10  -3.5209777572747766e-10  -1.7338728166062921e-09  3.6411052051619418e-09  6.8051497860799136e-09  -1.9605657122975092e-08  -3.8297527355248511e-08  5.7104347198571603e-08  2.4474853085444039e-07  3.1951701144391287e-07  1.8713211503118466e-07  1.5135591955135589e-08  -3.6276179384247293e-08  -8.2456551702764351e-09  6.7349560280811709e-09  1.1394439008561598e-09  -1.3491315021018357e-09  6.1593187757737548e-11  2.1149675460532381e-10  -7.1275406909916273e-11  -1.0307940438951754e-11  1.4867444522215581e-11  -4.3004965865431436e-12  -4.0063160251232170e-13  8.0722368908932625e-13  -3.2191991622399807e-13  4.4775232406156674e-14  2.1309192183130415e-14  -1.7164018854755825e-14  6.4661317851778295e-15  -1.3805539338466047e-15  -2.5779539671459838e-17  1.8204113292398391e-16  -1.0327339920097677e-16  4.0374042892523076e-17  -1.2767019570462557e-17  3.4680985363834290e-18  -8.6561074911102954e-19  0.0000000000000000e+00  0.0000000000000000e+00  3.6165461587360904e-10  -3.5209777572747771e-10  -1.5851944316572343e-09  4.6946440325198686e-09  2.5900391567634948e-09  -2.7851187310356633e-08  1.7281680825235771e-09  1.3912916851504596e-07  5.2836849414982584e-08  -5.6594173647274703e-07  -1.2044080756920814e-06  -1.0676286078325456e-06  -3.4647011536932092e-07  1.1384019804279504e-07  9.2733393202860603e-08  -1.6478296172916054e-08  -1.6594773348057883e-08  4.8973651975829234e-09  1.9636447096169903e-09  -1.2924196082002304e-09  5.2646937660281514e-11  1.8795257282113996e-10  -7.7088154970203019e-11  2.2916485568152685e-12  1.0429134144623099e-11  -5.0567560529201072e-12  9.3152086653828964e-13  2.3660092851042401e-13  -2.4757420702857565e-13  1.0032607460712620e-13  -2.2944740394127378e-14  2.6377970969814087e-16  2.6448418608580092e-15  -1.5683782958953555e-15  6.2268214764169520e-16  -1.9881377019383408e-16  5.3875595810080091e-17  -1.2767019570462497e-17  2.6112698886530414e-18  0.0000000000000000e+00  0.0000000000000000e+00  -8.7148508352893702e-11  -1.7338728166062933e-09  4.6946440325198703e-09  8.8105614904253448e-10  -2.8526590919110345e-08  3.2483601299245302e-08  1.2450941155934697e-07  -2.2707782202295349e-07  -6.2737883226483300e-07  6.8211045036879868e-07  3.6244299577168886e-06  4.8851635662712678e-06  2.7985951029574509e-06  1.2912097445991445e-07  -5.5577243469897222e-07  -7.8595684657871885e-08  1.0494327326026110e-07  3.1583242618225939e-09  -1.8674041107705135e-08  3.8889031398935998e-09  1.9148240189047735e-09  -1.2506051424035387e-09  1.6779933239237802e-10  1.2036378051282259e-10  -7.6814468897603434e-11  1.8054997377783665e-11  2.0317888506900564e-12  -3.4911537880583428e-12  1.5534811729983952e-12  -3.8398693264137495e-13  1.6215033172525323e-14  3.8012941370523891e-14  -2.3922977844836125e-14  9.6898770369792017e-15  -3.1210042024997555e-15  8.4886970126505983e-16  -1.9881377019383499e-16  4.0374042892523107e-17  -6.4179575721172595e-18  0.0000000000000000e+00  0.0000000000000000e+00  -1.8316543085892062e-09  3.6411052051619430e-09  2.5900391567634961e-09  -2.8526590919110349e-08  4.2427107759502400e-08  9.3857742158818131e-08  -3.5851937333218188e-07  -1.9930254823868054e-07  1.9341396191141975e-06  1.3316804609769525e-06  -7.8772589601295962e-06  -1.8206608376148431e-05  -1.6227117384280602e-05  -4.8472495521158607e-06  1.9721188369147963e-06  1.2355709079928055e-06  -3.5694334996642821e-07  -1.9026831698066208e-07  9.3394496907311195e-08  1.0054558433487399e-08  -1.8006566010158017e-08  4.4298490552604697e-09  1.1016443038519711e-09  -1.1123698304438139e-09  3.2898233707218669e-10  4.3175594623240833e-12  -4.7669497758274964e-11  2.3831117589647982e-11  -6.3890585692126884e-12  4.5251458477215083e-13  5.3871347521009774e-13  -3.6426297886174717e-13  1.5086146871615066e-13  -4.9028010414277334e-14  1.3364270307612598e-14  -3.1210042024997484e-15  6.2268214764169599e-16  -1.0327339920097647e-16  1.0669243828947685e-17  0.0000000000000000e+00  0.0000000000000000e+00  9.8684184183634696e-10  6.8051497860799178e-09  -2.7851187310356643e-08  3.2483601299245302e-08  9.3857742158818224e-08  -3.8727738904223038e-07  1.0487668062333758e-07  2.0414319159739679e-06  -2.1930529258796603e-06  -9.9724444169118934e-06  7.2539441194176158e-06  5.3343371608520215e-05  7.4699579238841568e-05  4.1613807904397370e-05  2.0327973444486093e-07  -8.3532420523326159e-06  -3.9375913967614421e-07  1.5292968635940404e-06  -1.7134031809145165e-07  -2.1561137112062541e-07  8.9384644465833533e-08  3.7009211479918979e-09  -1.5004532707402700e-08  5.6822185285173289e-09  -3.7630865153191580e-10  -6.1939555372592658e-10  3.6081789051138416e-10  -1.0558607681876584e-10  1.0363484826946650e-11  7.4776120025057684e-12  -5.5288520083899053e-12  2.3487142725833430e-12  -7.7093869568234551e-13  2.1062295300574286e-13  -4.9028010414277308e-14  9.6898770369791843e-15  -1.5683782958953589e-15  1.8204113292398388e-16  7.5340303527622577e-19  0.0000000000000000e+00  0.0000000000000000e+00  9.0122623069800933e-09  -1.9605657122975135e-08  1.7281680825236329e-09  1.2450941155934702e-07  -3.5851937333218193e-07  1.0487668062333689e-07  1.9421657329815706e-06  -3.8763698875573345e-06  -6.1561107318077555e-06  2.5409180559844732e-05  2.8249520564457805e-05  -1.0755671160387130e-04  -2.7608867256090651e-04  -2.4751696444626144e-04  -6.6311872616293388e-05  3.3749989866807701e-05  1.5398493594878750e-05  -6.7968418776633277e-06  -1.6767100923898735e-06  1.5004122636192177e-06  -1.5950871962335573e-07  -1.7934561902642628e-07  9.2876517050800404e-08  -1.2862570886182573e-08  -7.4017130850838873e-09  5.3649893178428279e-09  -1.7314831810655902e-09  2.1648723069550546e-10  1.0070155597434323e-10  -8.3573556341765813e-11  3.6563889784161117e-11  -1.2137001941852407e-11  3.3241791326226600e-12  -7.7093869568234652e-13  1.5086146871615089e-13  -2.3922977844836154e-14  2.6448418608580230e-15  -2.5779539671461437e-17  -9.0996384355935620e-17  0.0000000000000000e+00  0.0000000000000000e+00  1.2399307827164093e-09  -3.8297527355248478e-08  1.3912916851504609e-07  -2.2707782202295396e-07  -1.9930254823868051e-07  2.0414319159739688e-06  -3.8763698875573312e-06  -4.1820800753530162e-06  2.9782462394686600e-05  -1.2014587774172018e-05  -1.5341431841268911e-04  5.8544046739609274e-05  7.8286631253514285e-04  1.1489018552120901e-03  6.1743257877116674e-04  -2.7537964901055643e-05  -1.2255276932374905e-04  7.2280403117271434e-06  2.0185684373499932e-05  -5.5442081062914663e-06  -1.6430255945155947e-06  1.4174018115088227e-06  -3.0562587020583744e-07  -7.4651770457816793e-08  7.7713372055515481e-08  -2.8128031828378465e-08  4.2867789651400824e-09  1.2938714197832248e-09  -1.2564983487048941e-09  5.6911710809426701e-10  -1.9133768089495893e-10  5.2551160969786375e-11  -1.2137001941852356e-11  2.3487142725833341e-12  -3.6426297886174566e-13  3.8012941370523626e-14  2.6377970969817149e-16  -1.3805539338466023e-15  4.1147638337262003e-16  0.0000000000000000e+00  0.0000000000000000e+00  -3.7408264424717280e-08  5.7104347198571655e-08  5.2836849414982312e-08  -6.2737883226483300e-07  1.9341396191142000e-06  -2.1930529258796628e-06  -6.1561107318077631e-06  2.9782462394686610e-05  -2.6605655135651834e-05  -1.3090261926244952e-04  3.0193692378872953e-04  5.4807202190674826e-04  -1.4244073719034370e-03  -4.2053264828739462e-03  -3.7942224620036067e-03  -8.7417508665368546e-04  5.7002314653002966e-04  1.6811459432502458e-04  -1.1681624777484757e-04  -3.4346945962086426e-06  1.9497138549890612e-05  -6.1995944546038306e-06  -4.3722657460950719e-07  1.0813279606986232e-06  -4.5134398676121577e-07  8.1936470974947202e-08  1.5322704900718044e-08  -1.8754426056225631e-08  8.8554185548143177e-09  -3.0212527161277109e-09  8.3238417549598728e-10  -1.9133768089495981e-10  3.6563889784161169e-11  -5.5288520083899271e-12  5.3871347521010258e-13  1.6215033172524284e-14  -2.2944740394127268e-14  6.4661317851777924e-15  -1.0979918741366120e-15  0.0000000000000000e+00  0.0000000000000000e+00  -7.4643198161876221e-08  2.4474853085444034e-07  -5.6594173647274735e-07  6.8211045036880027e-07  1.3316804609769508e-06  -9.9724444169119019e-06  2.5409180559844769e-05  -1.2014587774172030e-05  -1.3090261926244958e-04  3.6318179382900179e-04  1.6363804702483376e-04  -2.2504107231316015e-03  1.4120555114890463e-05  1.1433288634827066e-02  1.7811077926205215e-02  9.1232009448646706e-03  -9.6280080300595089e-04  -1.7233320491441136e-03  3.1870164882948879e-04  2.1922718012648901e-04  -1.1203830035608649e-04  5.8378667323331123e-06  1.4058818553141648e-05  -7.1174535782583264e-06  1.5261543835145263e-06  1.5275874781015163e-07  -2.7711572551982956e-07  1.3771057242287309e-07  -4.7796781780282153e-08  1.3215057159053350e-08  -3.0212527161277060e-09  5.6911710809426825e-10  -8.3573556341765671e-11  7.4776120025057571e-12  4.5251458477215209e-13  -3.8398693264137450e-13  1.0032607460712645e-13  -1.7164018854755800e-14  1.4731796701739871e-15  0.0000000000000000e+00  0.0000000000000000e+00  -6.5794533123774146e-08  3.1951701144391266e-07  -1.2044080756920808e-06  3.6244299577168877e-06  -7.8772589601296030e-06  7.2539441194176387e-06  2.8249520564457792e-05  -1.5341431841268925e-04  3.0193692378872980e-04  1.6363804702483367e-04  -2.2595736529568639e-03  2.8589574601870782e-03  9.9933322600701171e-03  -1.7853738535076154e-02  -6.4440468532707060e-02  -5.8550615052933595e-02  -1.0740549694671827e-02  9.4540539238987045e-03  1.2680417111061001e-03  -1.7762756616457153e-03  3.0100150293620067e-04  1.5991231508089208e-04  -1.0928612461041234e-04  2.7832474799395449e-05  8.3223004770272203e-07  -4.0350982813860587e-06  2.1394599080070099e-06  -7.5788260594012121e-07  2.1039164498886197e-07  -4.7796781780282166e-08  8.8554185548143111e-09  -1.2564983487048980e-09  1.0070155597434346e-10  1.0363484826946563e-11  -6.3890585692126610e-12  1.5534811729983873e-12  -2.4757420702857510e-13  2.1309192183130187e-14  2.3011948869928269e-15  0.0000000000000000e+00  0.0000000000000000e+00  -2.2677496079650503e-08  1.8713211503118445e-07  -1.0676286078325449e-06  4.8851635662712670e-06  -1.8206608376148424e-05  5.3343371608520242e-05  -1.0755671160387141e-04  5.8544046739609579e-05  5.4807202190674848e-04  -2.2504107231316036e-03  2.8589574601870799e-03  7.6015736782759202e-03  -3.0352831618759592e-02  -1.4935295334119853e-02  1.6546142796232299e-01  2.7928027105383774e-01  1.3369290603956527e-01  -2.4515574597771688e-02  -2.2255937019687099e-02  7.7945901725212470e-03  1.2567306507529680e-03  -1.6038355118131334e-03  4.9746873081338760e-04  -1.5300953186020835e-05  -5.7447432038262866e-05  3.3184389788954409e-05  -1.2050926239131866e-05  3.3611387816054853e-06  -7.5788260594012238e-07  1.3771057242287338e-07  -1.8754426056225667e-08  1.2938714197832345e-09  2.1648723069550425e-10  -1.0558607681876571e-10  2.3831117589647947e-11  -3.4911537880583339e-12  2.3660092851042401e-13  4.4775232406156642e-14  -1.9606386135407579e-14  0.0000000000000000e+00  0.0000000000000000e+00  6.1373501052966539e-09  1.5135591955135470e-08  -3.4647011536932002e-07  2.7985951029574458e-06  -1.6227117384280589e-05  7.4699579238841527e-05  -2.7608867256090651e-04  7.8286631253514339e-04  -1.4244073719034396e-03  1.4120555114893387e-05  9.9933322600701240e-03  -3.0352831618759603e-02  9.0760586095389260e-03  1.7151677290926934e-01  -1.9869780661148026e-01  -9.9594070015260405e-01  -9.1207791854923859e-01  -1.1163781127499556e-01  1.5180025091431659e-01  -5.5046083175808273e-03  -2.1539245929220248e-02  8.6811491516462121e-03  -7.6293119348448929e-04  -7.8780777805758913e-04  5.1328334245743699e-04  -1.9229322956005793e-04  5.3931189979169978e-05  -1.2050926239131812e-05  2.1394599080070031e-06  -2.7711572551982834e-07  1.5322704900717868e-08  4.2867789651401072e-09  -1.7314831810655865e-09  3.6081789051138292e-10  -4.7669497758274647e-11  2.0317888506900083e-12  9.3152086653829792e-13  -3.2191991622399812e-13  5.4657480918772397e-14  0.0000000000000000e+00  0.0000000000000000e+00  6.2177770521766405e-09  -3.6276179384247312e-08  1.1384019804279530e-07  1.2912097445991321e-07  -4.8472495521158514e-06  4.1613807904397336e-05  -2.4751696444626122e-04  1.1489018552120899e-03  -4.2053264828739471e-03  1.1433288634827080e-02  -1.7853738535076186e-02  -1.4935295334119853e-02  1.7151677290926945e-01  -3.3700509847224330e-01  -4.9401454103191367e-01  2.3493536008999181e+00  4.4573732545823788e+00  1.9236535707489899e+00  -5.5516401969739704e-01  -2.3077645597747598e-01  1.4588337491854428e-01  -2.1781552096954843e-02  -1.0068425669299292e-02  7.9002615138885658e-03  -3.0823384574861631e-03  8.7029718757431222e-04  -1.9229322956005874e-04  3.3184389788954456e-05  -4.0350982813860799e-06  1.5275874781015587e-07  8.1936470974946222e-08  -2.8128031828378379e-08  5.3649893178427965e-09  -6.1939555372592307e-10  4.3175594623236770e-12  1.8054997377783665e-11  -5.0567560529201145e-12  8.0722368908932382e-13  -4.9482992103526223e-14  0.0000000000000000e+00  0.0000000000000000e+00  -5.9018143140464551e-10  -8.2456551702764252e-09  9.2733393202860616e-08  -5.5577243469897264e-07  1.9721188369147997e-06  2.0327973444483483e-07  -6.6311872616293252e-05  6.1743257877116609e-04  -3.7942224620036032e-03  1.7811077926205204e-02  -6.4440468532707101e-02  1.6546142796232319e-01  -1.9869780661148062e-01  -4.9401454103191367e-01  2.6790408141985158e+00  -1.5060585465082266e+00  -1.5596864913778955e+01  -1.4414326027032605e+01  -5.5563996911462654e-01  2.2588753371489942e+00  -5.2821572186314902e-01  -1.0905805959311352e-01  1.2046744711903946e-01  -4.9710912637748579e-02  1.4153330734800363e-02  -3.0823384574861583e-03  5.1328334245743796e-04  -5.7447432038262751e-05  8.3223004770271250e-07  1.5261543835145271e-06  -4.5134398676121525e-07  7.7713372055515653e-08  -7.4017130850838799e-09  -3.7630865153191595e-10  3.2898233707218659e-10  -7.6814468897603330e-11  1.0429134144623114e-11  -4.0063160251231978e-13  -2.1780299691780887e-13  0.0000000000000000e+00  0.0000000000000000e+00  -1.1917565910597583e-09  6.7349560280811817e-09  -1.6478296172916130e-08  -7.8595684657871554e-08  1.2355709079928045e-06  -8.3532420523326159e-06  3.3749989866807714e-05  -2.7537964901055832e-05  -8.7417508665368427e-04  9.1232009448646584e-03  -5.8550615052933547e-02  2.7928027105383774e-01  -9.9594070015260450e-01  2.3493536008999198e+00  -1.5060585465082283e+00  -1.2178582894594799e+01  3.1775734637139315e+01  7.3400118052791754e+01  2.6362173292429446e+01  -1.1765148785130462e+01  -5.8176553953131172e-01  1.8009396142251284e+00  -8.0871554397123147e-01  2.3274712934368325e-01  -4.9710912637748558e-02  7.9002615138885571e-03  -7.8780777805759151e-04  -1.5300953186020466e-05  2.7832474799395344e-05  -7.1174535782582968e-06  1.0813279606986170e-06  -7.4651770457816065e-08  -1.2862570886182702e-08  5.6822185285173504e-09  -1.1123698304438161e-09  1.2036378051282269e-10  2.2916485568152540e-12  -4.3004965865431372e-12  9.9210495755158507e-13  0.0000000000000000e+00  0.0000000000000000e+00  1.9966502850859517e-10  1.1394439008561584e-09  -1.6594773348057890e-08  1.0494327326026116e-07  -3.5694334996642864e-07  -3.9375913967614262e-07  1.5398493594878750e-05  -1.2255276932374908e-04  5.7002314653003009e-04  -9.6280080300595251e-04  -1.0740549694671812e-02  1.3369290603956518e-01  -9.1207791854923836e-01  4.4573732545823805e+00  -1.5596864913778962e+01  3.1775734637139340e+01  1.3130714884897470e+01  -2.4995416100822032e+02  -2.3356819583679393e+02  2.0392026019464080e+01  2.5579980697887262e+01  -1.3333399366182563e+01  3.8944156368052352e+00  -8.0871554397123246e-01  1.2046744711903970e-01  -1.0068425669299337e-02  -7.6293119348448256e-04  4.9746873081338522e-04  -1.0928612461041209e-04  1.4058818553141625e-05  -4.3722657460950481e-07  -3.0562587020583829e-07  9.2876517050800338e-08  -1.5004532707402697e-08  1.1016443038519674e-09  1.6779933239237858e-10  -7.7088154970203342e-11  1.4867444522215584e-11  -1.3281444760270802e-12  0.0000000000000000e+00  0.0000000000000000e+00  1.8342766714095557e-10  -1.3491315021018369e-09  4.8973651975829267e-09  3.1583242618225972e-09  -1.9026831698066230e-07  1.5292968635940416e-06  -6.7968418776633387e-06  7.2280403117271899e-06  1.6811459432502447e-04  -1.7233320491441145e-03  9.4540539238987115e-03  -2.4515574597771733e-02  -1.1163781127499531e-01  1.9236535707489881e+00  -1.4414326027032606e+01  7.3400118052791797e+01  -2.4995416100822038e+02  3.5508475495891912e+02  1.2961377604351480e+03  2.9588757569172901e+02  -2.2501155794621079e+02  6.7194322841547304e+01  -1.3333399366182507e+01  1.8009396142251208e+00  -1.0905805959311257e-01  -2.1781552096954863e-02  8.6811491516462259e-03  -1.6038355118131282e-03  1.5991231508089121e-04  5.8378667323332665e-06  -6.1995944546038450e-06  1.4174018115088284e-06  -1.7934561902642647e-07  3.7009211479919513e-09  4.4298490552604614e-09  -1.2506051424035349e-09  1.8795257282113989e-10  -1.0307940438951668e-11  -3.0464146552013230e-12  0.0000000000000000e+00  0.0000000000000000e+00  -7.1327867293756021e-11  6.1593187757737445e-11  1.9636447096169932e-09  -1.8674041107705155e-08  9.3394496907311274e-08  -1.7134031809145204e-07  -1.6767100923898721e-06  2.0185684373499946e-05  -1.1681624777484766e-04  3.1870164882948912e-04  1.2680417111061019e-03  -2.2255937019687130e-02  1.5180025091431676e-01  -5.5516401969739748e-01  -5.5563996911462255e-01  2.6362173292429450e+01  -2.3356819583679399e+02  1.2961377604351483e+03  -4.2158455981217276e+03  -3.9979207134462531e+03  1.2419466429931249e+03  -2.2501155794621178e+02  2.5579980697887336e+01  -5.8176553953133381e-01  -5.2821572186314458e-01  1.4588337491854328e-01  -2.1539245929220165e-02  1.2567306507529469e-03  3.0100150293620333e-04  -1.1203830035608682e-04  1.9497138549890636e-05  -1.6430255945156009e-06  -1.5950871962335525e-07  8.9384644465833560e-08  -1.800656601015801