<?xml version="1.0"?>
<VTKFile type="UnstructuredGrid"  version="0.1"  >
<UnstructuredGrid>
<Piece  NumberOfPoints="1681" NumberOfCells="3200">
<Points>
<DataArray  type="Float64"  NumberOfComponents="3"  format="ascii">-2 -2 0  -1.9 -2 0  -1.8 -2 0  -1.7 -2 0  -1.6 -2 0  -1.5 -2 0  -1.4 -2 0  -1.3 -2 0  -1.2 -2 0  -1.1 -2 0  -1 -2 0  -0.8999999999999999 -2 0  -0.8 -2 0  -0.7 -2 0  -0.6000000000000001 -2 0  -0.5 -2 0  -0.3999999999999999 -2 0  -0.3 -2 0  -0.2 -2 0  -0.1000000000000001 -2 0  0 -2 0  0.1000000000000001 -2 0  0.2000000000000002 -2 0  0.2999999999999998 -2 0  0.3999999999999999 -2 0  0.5 -2 0  0.6000000000000001 -2 0  0.7000000000000002 -2 0  0.7999999999999998 -2 0  0.8999999999999999 -2 0  1 -2 0  1.1 -2 0  1.2 -2 0  1.3 -2 0  1.4 -2 0  1.5 -2 0  1.6 -2 0  1.7 -2 0  1.8 -2 0  1.9 -2 0  2 -2 0  -2 -1.9 0  -1.9 -1.9 0  -1.8 -1.9 0  -1.7 -1.9 0  -1.6 -1.9 0  -1.5 -1.9 0  -1.4 -1.9 0  -1.3 -1.9 0  -1.2 -1.9 0  -1.1 -1.9 0  -1 -1.9 0  -0.8999999999999999 -1.9 0  -0.8 -1.9 0  -0.7 -1.9 0  -0.6000000000000001 -1.9 0  -0.5 -1.9 0  -0.3999999999999999 -1.9 0  -0.3 -1.9 0  -0.2 -1.9 0  -0.1000000000000001 -1.9 0  0 -1.9 0  0.1000000000000001 -1.9 0  0.2000000000000002 -1.9 0  0.2999999999999998 -1.9 0  0.3999999999999999 -1.9 0  0.5 -1.9 0  0.6000000000000001 -1.9 0  0.7000000000000002 -1.9 0  0.7999999999999998 -1.9 0  0.8999999999999999 -1.9 0  1 -1.9 0  1.1 -1.9 0  1.2 -1.9 0  1.3 -1.9 0  1.4 -1.9 0  1.5 -1.9 0  1.6 -1.9 0  1.7 -1.9 0  1.8 -1.9 0  1.9 -1.9 0  2 -1.9 0  -2 -1.8 0  -1.9 -1.8 0  -1.8 -1.8 0  -1.7 -1.8 0  -1.6 -1.8 0  -1.5 -1.8 0  -1.4 -1.8 0  -1.3 -1.8 0  -1.2 -1.8 0  -1.1 -1.8 0  -1 -1.8 0  -0.8999999999999999 -1.8 0  -0.8 -1.8 0  -0.7 -1.8 0  -0.6000000000000001 -1.8 0  -0.5 -1.8 0  -0.3999999999999999 -1.8 0  -0.3 -1.8 0  -0.2 -1.8 0  -0.1000000000000001 -1.8 0  0 -1.8 0  0.1000000000000001 -1.8 0  0.2000000000000002 -1.8 0  0.2999999999999998 -1.8 0  0.3999999999999999 -1.8 0  0.5 -1.8 0  0.6000000000000001 -1.8 0  0.7000000000000002 -1.8 0  0.7999999999999998 -1.8 0  0.8999999999999999 -1.8 0  1 -1.8 0  1.1 -1.8 0  1.2 -1.8 0  1.3 -1.8 0  1.4 -1.8 0  1.5 -1.8 0  1.6 -1.8 0  1.7 -1.8 0  1.8 -1.8 0  1.9 -1.8 0  2 -1.8 0  -2 -1.7 0  -1.9 -1.7 0  -1.8 -1.7 0  -1.7 -1.7 0  -1.6 -1.7 0  -1.5 -1.7 0  -1.4 -1.7 0  -1.3 -1.7 0  -1.2 -1.7 0  -1.1 -1.7 0  -1 -1.7 0  -0.8999999999999999 -1.7 0  -0.8 -1.7 0  -0.7 -1.7 0  -0.6000000000000001 -1.7 0  -0.5 -1.7 0  -0.3999999999999999 -1.7 0  -0.3 -1.7 0  -0.2 -1.7 0  -0.1000000000000001 -1.7 0  0 -1.7 0  0.1000000000000001 -1.7 0  0.2000000000000002 -1.7 0  0.2999999999999998 -1.7 0  0.3999999999999999 -1.7 0  0.5 -1.7 0  0.6000000000000001 -1.7 0  0.7000000000000002 -1.7 0  0.7999999999999998 -1.7 0  0.8999999999999999 -1.7 0  1 -1.7 0  1.1 -1.7 0  1.2 -1.7 0  1.3 -1.7 0  1.4 -1.7 0  1.5 -1.7 0  1.6 -1.7 0  1.7 -1.7 0  1.8 -1.7 0  1.9 -1.7 0  2 -1.7 0  -2 -1.6 0  -1.9 -1.6 0  -1.8 -1.6 0  -1.7 -1.6 0  -1.6 -1.6 0  -1.5 -1.6 0  -1.4 -1.6 0  -1.3 -1.6 0  -1.2 -1.6 0  -1.1 -1.6 0  -1 -1.6 0  -0.8999999999999999 -1.6 0  -0.8 -1.6 0  -0.7 -1.6 0  -0.6000000000000001 -1.6 0  -0.5 -1.6 0  -0.3999999999999999 -1.6 0  -0.3 -1.6 0  -0.2 -1.6 0  -0.1000000000000001 -1.6 0  0 -1.6 0  0.1000000000000001 -1.6 0  0.2000000000000002 -1.6 0  0.2999999999999998 -1.6 0  0.3999999999999999 -1.6 0  0.5 -1.6 0  0.6000000000000001 -1.6 0  0.7000000000000002 -1.6 0  0.7999999999999998 -1.6 0  0.8999999999999999 -1.6 0  1 -1.6 0  1.1 -1.6 0  1.2 -1.6 0  1.3 -1.6 0  1.4 -1.6 0  1.5 -1.6 0  1.6 -1.6 0  1.7 -1.6 0  1.8 -1.6 0  1.9 -1.6 0  2 -1.6 0  -2 -1.5 0  -1.9 -1.5 0  -1.8 -1.5 0  -1.7 -1.5 0  -1.6 -1.5 0  -1.5 -1.5 0  -1.4 -1.5 0  -1.3 -1.5 0  -1.2 -1.5 0  -1.1 -1.5 0  -1 -1.5 0  -0.8999999999999999 -1.5 0  -0.8 -1.5 0  -0.7 -1.5 0  -0.6000000000000001 -1.5 0  -0.5 -1.5 0  -0.3999999999999999 -1.5 0  -0.3 -1.5 0  -0.2 -1.5 0  -0.1000000000000001 -1.5 0  0 -1.5 0  0.1000000000000001 -1.5 0  0.2000000000000002 -1.5 0  0.2999999999999998 -1.5 0  0.3999999999999999 -1.5 0  0.5 -1.5 0  0.6000000000000001 -1.5 0  0.7000000000000002 -1.5 0  0.7999999999999998 -1.5 0  0.8999999999999999 -1.5 0  1 -1.5 0  1.1 -1.5 0  1.2 -1.5 0  1.3 -1.5 0  1.4 -1.5 0  1.5 -1.5 0  1.6 -1.5 0  1.7 -1.5 0  1.8 -1.5 0  1.9 -1.5 0  2 -1.5 0  -2 -1.4 0  -1.9 -1.4 0  -1.8 -1.4 0  -1.7 -1.4 0  -1.6 -1.4 0  -1.5 -1.4 0  -1.4 -1.4 0  -1.3 -1.4 0  -1.2 -1.4 0  -1.1 -1.4 0  -1 -1.4 0  -0.8999999999999999 -1.4 0  -0.8 -1.4 0  -0.7 -1.4 0  -0.6000000000000001 -1.4 0  -0.5 -1.4 0  -0.3999999999999999 -1.4 0  -0.3 -1.4 0  -0.2 -1.4 0  -0.1000000000000001 -1.4 0  0 -1.4 0  0.1000000000000001 -1.4 0  0.2000000000000002 -1.4 0  0.2999999999999998 -1.4 0  0.3999999999999999 -1.4 0  0.5 -1.4 0  0.6000000000000001 -1.4 0  0.7000000000000002 -1.4 0  0.7999999999999998 -1.4 0  0.8999999999999999 -1.4 0  1 -1.4 0  1.1 -1.4 0  1.2 -1.4 0  1.3 -1.4 0  1.4 -1.4 0  1.5 -1.4 0  1.6 -1.4 0  1.7 -1.4 0  1.8 -1.4 0  1.9 -1.4 0  2 -1.4 0  -2 -1.3 0  -1.9 -1.3 0  -1.8 -1.3 0  -1.7 -1.3 0  -1.6 -1.3 0  -1.5 -1.3 0  -1.4 -1.3 0  -1.3 -1.3 0  -1.2 -1.3 0  -1.1 -1.3 0  -1 -1.3 0  -0.8999999999999999 -1.3 0  -0.8 -1.3 0  -0.7 -1.3 0  -0.6000000000000001 -1.3 0  -0.5 -1.3 0  -0.3999999999999999 -1.3 0  -0.3 -1.3 0  -0.2 -1.3 0  -0.1000000000000001 -1.3 0  0 -1.3 0  0.1000000000000001 -1.3 0  0.2000000000000002 -1.3 0  0.2999999999999998 -1.3 0  0.3999999999999999 -1.3 0  0.5 -1.3 0  0.6000000000000001 -1.3 0  0.7000000000000002 -1.3 0  0.7999999999999998 -1.3 0  0.8999999999999999 -1.3 0  1 -1.3 0  1.1 -1.3 0  1.2 -1.3 0  1.3 -1.3 0  1.4 -1.3 0  1.5 -1.3 0  1.6 -1.3 0  1.7 -1.3 0  1.8 -1.3 0  1.9 -1.3 0  2 -1.3 0  -2 -1.2 0  -1.9 -1.2 0  -1.8 -1.2 0  -1.7 -1.2 0  -1.6 -1.2 0  -1.5 -1.2 0  -1.4 -1.2 0  -1.3 -1.2 0  -1.2 -1.2 0  -1.1 -1.2 0  -1 -1.2 0  -0.8999999999999999 -1.2 0  -0.8 -1.2 0  -0.7 -1.2 0  -0.6000000000000001 -1.2 0  -0.5 -1.2 0  -0.3999999999999999 -1.2 0  -0.3 -1.2 0  -0.2 -1.2 0  -0.1000000000000001 -1.2 0  0 -1.2 0  0.1000000000000001 -1.2 0  0.2000000000000002 -1.2 0  0.2999999999999998 -1.2 0  0.3999999999999999 -1.2 0  0.5 -1.2 0  0.6000000000000001 -1.2 0  0.7000000000000002 -1.2 0  0.7999999999999998 -1.2 0  0.8999999999999999 -1.2 0  1 -1.2 0  1.1 -1.2 0  1.2 -1.2 0  1.3 -1.2 0  1.4 -1.2 0  1.5 -1.2 0  1.6 -1.2 0  1.7 -1.2 0  1.8 -1.2 0  1.9 -1.2 0  2 -1.2 0  -2 -1.1 0  -1.9 -1.1 0  -1.8 -1.1 0  -1.7 -1.1 0  -1.6 -1.1 0  -1.5 -1.1 0  -1.4 -1.1 0  -1.3 -1.1 0  -1.2 -1.1 0  -1.1 -1.1 0  -1 -1.1 0  -0.8999999999999999 -1.1 0  -0.8 -1.1 0  -0.7 -1.1 0  -0.6000000000000001 -1.1 0  -0.5 -1.1 0  -0.3999999999999999 -1.1 0  -0.3 -1.1 0  -0.2 -1.1 0  -0.1000000000000001 -1.1 0  0 -1.1 0  0.1000000000000001 -1.1 0  0.2000000000000002 -1.1 0  0.2999999999999998 -1.1 0  0.3999999999999999 -1.1 0  0.5 -1.1 0  0.6000000000000001 -1.1 0  0.7000000000000002 -1.1 0  0.7999999999999998 -1.1 0  0.8999999999999999 -1.1 0  1 -1.1 0  1.1 -1.1 0  1.2 -1.1 0  1.3 -1.1 0  1.4 -1.1 0  1.5 -1.1 0  1.6 -1.1 0  1.7 -1.1 0  1.8 -1.1 0  1.9 -1.1 0  2 -1.1 0  -2 -1 0  -1.9 -1 0  -1.8 -1 0  -1.7 -1 0  -1.6 -1 0  -1.5 -1 0  -1.4 -1 0  -1.3 -1 0  -1.2 -1 0  -1.1 -1 0  -1 -1 0  -0.8999999999999999 -1 0  -0.8 -1 0  -0.7 -1 0  -0.6000000000000001 -1 0  -0.5 -1 0  -0.3999999999999999 -1 0  -0.3 -1 0  -0.2 -1 0  -0.1000000000000001 -1 0  0 -1 0  0.1000000000000001 -1 0  0.2000000000000002 -1 0  0.2999999999999998 -1 0  0.3999999999999999 -1 0  0.5 -1 0  0.6000000000000001 -1 0  0.7000000000000002 -1 0  0.7999999999999998 -1 0  0.8999999999999999 -1 0  1 -1 0  1.1 -1 0  1.2 -1 0  1.3 -1 0  1.4 -1 0  1.5 -1 0  1.6 -1 0  1.7 -1 0  1.8 -1 0  1.9 -1 0  2 -1 0  -2 -0.8999999999999999 0  -1.9 -0.8999999999999999 0  -1.8 -0.8999999999999999 0  -1.7 -0.8999999999999999 0  -1.6 -0.8999999999999999 0  -1.5 -0.8999999999999999 0  -1.4 -0.8999999999999999 0  -1.3 -0.8999999999999999 0  -1.2 -0.8999999999999999 0  -1.1 -0.8999999999999999 0  -1 -0.8999999999999999 0  -0.8999999999999999 -0.8999999999999999 0  -0.8 -0.8999999999999999 0  -0.7 -0.8999999999999999 0  -0.6000000000000001 -0.8999999999999999 0  -0.5 -0.8999999999999999 0  -0.3999999999999999 -0.8999999999999999 0  -0.3 -0.8999999999999999 0  -0.2 -0.8999999999999999 0  -0.1000000000000001 -0.8999999999999999 0  0 -0.8999999999999999 0  0.1000000000000001 -0.8999999999999999 0  0.2000000000000002 -0.8999999999999999 0  0.2999999999999998 -0.8999999999999999 0  0.3999999999999999 -0.8999999999999999 0  0.5 -0.8999999999999999 0  0.6000000000000001 -0.8999999999999999 0  0.7000000000000002 -0.8999999999999999 0  0.7999999999999998 -0.8999999999999999 0  0.8999999999999999 -0.8999999999999999 0  1 -0.8999999999999999 0  1.1 -0.8999999999999999 0  1.2 -0.8999999999999999 0  1.3 -0.8999999999999999 0  1.4 -0.8999999999999999 0  1.5 -0.8999999999999999 0  1.6 -0.8999999999999999 0  1.7 -0.8999999999999999 0  1.8 -0.8999999999999999 0  1.9 -0.8999999999999999 0  2 -0.8999999999999999 0  -2 -0.8 0  -1.9 -0.8 0  -1.8 -0.8 0  -1.7 -0.8 0  -1.6 -0.8 0  -1.5 -0.8 0  -1.4 -0.8 0  -1.3 -0.8 0  -1.2 -0.8 0  -1.1 -0.8 0  -1 -0.8 0  -0.8999999999999999 -0.8 0  -0.8 -0.8 0  -0.7 -0.8 0  -0.6000000000000001 -0.8 0  -0.5 -0.8 0  -0.3999999999999999 -0.8 0  -0.3 -0.8 0  -0.2 -0.8 0  -0.1000000000000001 -0.8 0  0 -0.8 0  0.1000000000000001 -0.8 0  0.2000000000000002 -0.8 0  0.2999999999999998 -0.8 0  0.3999999999999999 -0.8 0  0.5 -0.8 0  0.6000000000000001 -0.8 0  0.7000000000000002 -0.8 0  0.7999999999999998 -0.8 0  0.8999999999999999 -0.8 0  1 -0.8 0  1.1 -0.8 0  1.2 -0.8 0  1.3 -0.8 0  1.4 -0.8 0  1.5 -0.8 0  1.6 -0.8 0  1.7 -0.8 0  1.8 -0.8 0  1.9 -0.8 0  2 -0.8 0  -2 -0.7 0  -1.9 -0.7 0  -1.8 -0.7 0  -1.7 -0.7 0  -1.6 -0.7 0  -1.5 -0.7 0  -1.4 -0.7 0  -1.3 -0.7 0  -1.2 -0.7 0  -1.1 -0.7 0  -1 -0.7 0  -0.8999999999999999 -0.7 0  -0.8 -0.7 0  -0.7 -0.7 0  -0.6000000000000001 -0.7 0  -0.5 -0.7 0  -0.3999999999999999 -0.7 0  -0.3 -0.7 0  -0.2 -0.7 0  -0.1000000000000001 -0.7 0  0 -0.7 0  0.1000000000000001 -0.7 0  0.2000000000000002 -0.7 0  0.2999999999999998 -0.7 0  0.3999999999999999 -0.7 0  0.5 -0.7 0  0.600000000000000
[...]
<PointData  Scalars="f_1726"> 
<DataArray  type="Float64"  Name="f_1726"  format="ascii">0.0000000000000000e+00  0.0000000000000000e+00  0.0000000000000000e+00  0.0000000000000000e+00  0.0000000000000000e+00  0.0000000000000000e+00  0.0000000000000000e+00  0.0000000000000000e+00  0.0000000000000000e+00  0.0000000000000000e+00  0.0000000000000000e+00  0.0000000000000000e+00  0.0000000000000000e+00  0.0000000000000000e+00  0.0000000000000000e+00  0.0000000000000000e+00  0.0000000000000000e+00  0.0000000000000000e+00  0.0000000000000000e+00  0.0000000000000000e+00  0.0000000000000000e+00  0.0000000000000000e+00  0.0000000000000000e+00  0.0000000000000000e+00  0.0000000000000000e+00  0.0000000000000000e+00  0.0000000000000000e+00  0.0000000000000000e+00  0.0000000000000000e+00  0.0000000000000000e+00  0.0000000000000000e+00  0.0000000000000000e+00  0.0000000000000000e+00  0.0000000000000000e+00  0.0000000000000000e+00  0.0000000000000000e+00  0.0000000000000000e+00  0.0000000000000000e+00  0.0000000000000000e+00  0.0000000000000000e+00  0.0000000000000000e+00  0.0000000000000000e+00  -1.1889207411142209e-11  -1.3855197509533676e-11  9.1046443856684769e-11  -2.1939611509668913e-11  -4.6111843690694906e-10  2.4843714528886266e-10  2.2688344020498802e-09  3.1215221219302271e-10  -9.4175196367777812e-09  -1.8791403323616715e-08  -1.6563754486197414e-08  -5.7090530108087000e-09  1.5450760954368457e-09  1.5653235558100164e-09  -1.4857800288222929e-10  -3.0002437352182619e-10  5.0265612577178415e-11  4.6177861598061640e-11  -1.7956769746435608e-11  -3.2806454369336648e-12  3.9095472255677048e-12  -7.6693399916649137e-13  -3.3435998370452295e-13  2.4976213313208960e-13  -5.4831840823580751e-14  -1.2457328801214585e-14  1.3760004848266540e-14  -4.9359019798428976e-15  5.7932514030209761e-16  3.7087255144610208e-16  -2.7641913343810991e-16  1.0358905926470955e-16  -2.2908313168936379e-17  1.8966899395724037e-19  2.6859790159710044e-18  -1.6157189432045557e-18  6.5738643135413254e-19  -2.1791725312368996e-19  6.9078344944437628e-20  0.0000000000000000e+00  0.0000000000000000e+00  -1.3855197509533684e-11  9.9641032524685825e-11  -8.8640512142775331e-11  -4.3650197487579335e-10  9.1664717132744956e-10  1.7131944699170867e-09  -4.9357184511760605e-09  -9.6413913196619185e-09  1.4376002719136823e-08  6.1615371117598331e-08  8.0438314255750014e-08  4.7110455271843570e-08  3.8103808514987691e-09  -9.1325175586785911e-09  -2.0758412794170544e-09  1.6955232118542403e-09  2.8685466905086625e-10  -3.3964346138562057e-10  1.5506067018093562e-11  5.3244246164341088e-11  -1.7943562860134909e-11  -2.5950209931263805e-12  3.7428748136242295e-12  -1.0826487588904483e-12  -1.0085888885239467e-13  2.0321832782618846e-13  -8.1043244831914520e-14  1.1272151673191553e-14  5.3645829047311960e-15  -4.3210367306932016e-15  1.6278467872641872e-15  -3.4755404939451362e-16  -6.4899915785093737e-18  4.5828802014138125e-17  -2.5999048068355830e-17  1.0164153499332470e-17  -3.2140934458459856e-18  8.7309279302171379e-19  -2.1791725312369011e-19  0.0000000000000000e+00  0.0000000000000000e+00  9.1046443856684807e-11  -8.8640512142775305e-11  -3.9907223491445472e-10  1.1818752632299292e-09  6.5204160080538197e-10  -7.0115282661858487e-09  4.3506580973760727e-10  3.5025727514727193e-08  1.3301661399246500e-08  -1.4247566676690307e-07  -3.0320938108075951e-07  -2.6877519001938342e-07  -8.7223750292229815e-08  2.8659236588755394e-08  2.3345604638528365e-08  -4.1484062459347868e-09  -4.1777293407375955e-09  1.2329102572915701e-09  4.9434698179298382e-10  -3.2536625866930506e-10  1.3253851170500073e-11  4.7317005280695270e-11  -1.9406920485601833e-11  5.7692185446970769e-13  2.6255314731116412e-12  -1.2730368585425210e-12  2.3451010592451159e-13  5.9564214608537525e-14  -6.2326734268664838e-14  2.5257059963176428e-14  -5.7763316888790999e-15  6.6406464829851096e-17  6.6583816554569968e-16  -3.9483877765072819e-16  1.5676004869693833e-16  -5.0051308545208140e-17  1.3563165500650375e-17  -3.2140934458459713e-18  6.5738643135413033e-19  0.0000000000000000e+00  0.0000000000000000e+00  -2.1939611509668933e-11  -4.3650197487579351e-10  1.1818752632299292e-09  2.2180562804270244e-10  -7.1815609273104888e-09  8.1777371341176412e-09  3.1345207973589639e-08  -5.7166775333337497e-08  -1.5794243767825991e-07  1.7172110654123329e-07  9.1244918265631209e-07  1.2298385001746510e-06  7.0454549931157681e-07  3.2506167586130081e-08  -1.3991554801721938e-07  -1.9786440643913848e-08  2.6419438374778734e-08  7.9510720992907861e-10  -4.7011843915861614e-09  9.7903022897998422e-10  4.8205638717348108e-10  -3.1483947912479538e-10  4.2243432892312418e-11  3.0301546569141196e-11  -1.9338020096806565e-11  4.5453403134869996e-12  5.1150224939377049e-13  -8.7889694589323574e-13  3.9108843131493530e-13  -9.6668598076601240e-14  4.0821298625220695e-15  9.5697468811745637e-15  -6.0226026812161269e-15  2.4394237123018695e-15  -7.8571189590091648e-16  2.1370269922085038e-16  -5.0051308545208381e-17  1.0164153499332484e-17  -1.6157189432045613e-18  0.0000000000000000e+00  0.0000000000000000e+00  -4.6111843690694973e-10  9.1664717132745049e-10  6.5204160080538135e-10  -7.1815609273104888e-09  1.0681011979609388e-08  2.3628659159612364e-08  -9.0257147463119806e-08  -5.0174358275158459e-08  4.8691908388143607e-07  3.3525016688230129e-07  -1.9830976411722394e-06  -4.5835083380187209e-06  -4.0851720592999850e-06  -1.2202936581909717e-06  4.9648034086373726e-07  3.1105461500547923e-07  -8.9860384041366444e-08  -4.7899993196104790e-08  2.3512037302923676e-08  2.5312321472987722e-09  -4.5331477308407673e-09  1.1152132050882300e-09  2.7733863155156898e-10  -2.8003877973665086e-10  8.2821207216532888e-11  1.0869443328818915e-12  -1.2000782129770842e-11  5.9994768888176398e-12  -1.6084436276687438e-12  1.1392041447408783e-13  1.3562095995118439e-13  -9.1703098476683793e-14  3.7979330661722453e-14  -1.2342787293909370e-14  3.3644511443836952e-15  -7.8571189590091530e-16  1.5676004869693863e-16  -2.5999048068355768e-17  2.6859790159709991e-18  0.0000000000000000e+00  0.0000000000000000e+00  2.4843714528886400e-10  1.7131944699170886e-09  -7.0115282661858545e-09  8.1777371341176494e-09  2.3628659159612367e-08  -9.7496969513917782e-08  2.6402673697893960e-08  5.1392988826091565e-07  -5.5210043319513697e-07  -2.5105599676227826e-06  1.8261783121797566e-06  1.3429178213444215e-05  1.8805597243265986e-05  1.0476263978764437e-05  5.1175613740276865e-08  -2.1029262455336401e-06  -9.9128748341787177e-08  3.8500003848998135e-07  -4.3134875007240939e-08  -5.4280099669617835e-08  2.2502558122615964e-08  9.3170581745435960e-10  -3.7773867241826059e-09  1.4304968539897438e-09  -9.4735593051185984e-11  -1.5593264963911388e-10  9.0835798491268263e-11  -2.6581263982780190e-11  2.6090042765718745e-12  1.8824866363827727e-12  -1.3918868773673059e-12  5.9128813173751102e-13  -1.9408359133986239e-13  5.3024266867005252e-14  -1.2342787293909365e-14  2.4394237123018644e-15  -3.9483877765072893e-16  4.5828802014138057e-17  1.8966899395722443e-19  0.0000000000000000e+00  0.0000000000000000e+00  2.2688344020498827e-09  -4.9357184511760721e-09  4.3506580973761942e-10  3.1345207973589652e-08  -9.0257147463119846e-08  2.6402673697893997e-08  4.8893965570200624e-07  -9.7587498636703076e-07  -1.5497990776784403e-06  6.3967537803935010e-06  7.1118085464974003e-06  -2.7077370714034636e-05  -6.9505242633397009e-05  -6.2312323465295641e-05  -1.6693994552252471e-05  8.4965500859136599e-06  3.8765662624740607e-06  -1.7111029564011037e-06  -4.2211127575947296e-07  3.7772834888751935e-07  -4.0156273550549357e-08  -4.5150207178161602e-08  2.3381636025420869e-08  -3.2381484616546993e-09  -1.8633791061024215e-09  1.3506344929091093e-09  -4.3590038482676555e-10  5.4500597061633733e-11  2.5351587287643082e-11  -2.1039618385607124e-11  9.2049485677767687e-12  -3.0554866919589523e-12  8.3686112518376847e-13  -1.9408359133986264e-13  3.7979330661722503e-14  -6.0226026812161332e-15  6.6583816554570313e-16  -6.4899915785097719e-18  -2.2908313168936299e-17  0.0000000000000000e+00  0.0000000000000000e+00  3.1215221219302126e-10  -9.6413913196619235e-09  3.5025727514727246e-08  -5.7166775333337610e-08  -5.0174358275158406e-08  5.1392988826091586e-07  -9.7587498636703097e-07  -1.0528374368042311e-06  7.4977262042724854e-06  -3.0246689610195686e-06  -3.8622009826784355e-05  1.4738446657857048e-05  1.9708636539684222e-04  2.8923570629599065e-04  1.5543847126791034e-04  -6.9326746161800182e-06  -3.0852623862584540e-05  1.8196570361637740e-06  5.0817401419892453e-06  -1.3957527705263770e-06  -4.1363121326353994e-07  3.5683049182759897e-07  -7.6941223508594384e-08  -1.8793561396614603e-08  1.9564318704116583e-08  -7.0812237926931506e-09  1.0791953517110487e-09  3.2573175181104822e-10  -3.1632309208893825e-10  1.4327506564465409e-10  -4.8169205249019428e-11  1.3229739416657628e-11  -3.0554866919589385e-12  5.9128813173750890e-13  -9.1703098476683390e-14  9.5697468811744974e-15  6.6406464829858775e-17  -3.4755404939451312e-16  1.0358905926470927e-16  0.0000000000000000e+00  0.0000000000000000e+00  -9.4175196367777911e-09  1.4376002719136845e-08  1.3301661399246457e-08  -1.5794243767826009e-07  4.8691908388143681e-07  -5.5210043319513814e-07  -1.5497990776784405e-06  7.4977262042724922e-06  -6.6979659051966848e-06  -3.2954696144502615e-05  7.6012532326140568e-05  1.3797697134713599e-04  -3.5859413960964693e-04  -1.0586897131041214e-03  -9.5519439599054182e-04  -2.2007332259722261e-04  1.4350316055607769e-04  4.2322799991724428e-05  -2.9408456239082528e-05  -8.6468336084464087e-07  4.9083989321153797e-06  -1.5607460921847208e-06  -1.1007166238339182e-07  2.7222399809993669e-07  -1.1362571676692931e-07  2.0627482622930318e-08  3.8574864808674967e-09  -4.7214212788845969e-09  2.2293490332779707e-09  -7.6059948835800548e-10  2.0955247292619583e-10  -4.8169205249019596e-11  9.2049485677767784e-12  -1.3918868773673116e-12  1.3562095995118565e-13  4.0821298625217926e-15  -5.7763316888790699e-15  1.6278467872641777e-15  -2.7641913343810892e-16  0.0000000000000000e+00  0.0000000000000000e+00  -1.8791403323616705e-08  6.1615371117598318e-08  -1.4247566676690320e-07  1.7172110654123367e-07  3.3525016688230145e-07  -2.5105599676227864e-06  6.3967537803935120e-06  -3.0246689610195821e-06  -3.2954696144502642e-05  9.1430910460654267e-05  4.1195830517122157e-05  -5.6654024189114246e-04  3.5548456236005996e-06  2.8783270725676259e-03  4.4839336628348424e-03  2.2967631717167544e-03  -2.4238482078903548e-04  -4.3384833974761039e-04  8.0233046955849273e-05  5.5190378530164446e-05  -2.8205609372710859e-05  1.4696812438139217e-06  3.5393034622217196e-06  -1.7918168583307296e-06  3.8420892004831817e-07  3.8456970119178854e-08  -6.9763802915661236e-08  3.4668596363091441e-08  -1.2032825845113819e-08  3.3268867778397699e-09  -7.6059948835800403e-10  1.4327506564465433e-10  -2.1039618385607085e-11  1.8824866363827707e-12  1.1392041447408793e-13  -9.6668598076601114e-14  2.5257059963176497e-14  -4.3210367306931968e-15  3.7087255144610223e-16  0.0000000000000000e+00  0.0000000000000000e+00  -1.6563754486197404e-08  8.0438314255749974e-08  -3.0320938108075951e-07  9.1244918265631198e-07  -1.9830976411722411e-06  1.8261783121797595e-06  7.1118085464974054e-06  -3.8622009826784410e-05  7.6012532326140690e-05  4.1195830517122164e-05  -5.6884700679688926e-04  7.1974170510391458e-04  2.5158184760336283e-03  -4.4946734586510219e-03  -1.6222869121106410e-02  -1.4740100228816921e-02  -2.7039302468287144e-03  2.3800553125005071e-03  3.1922913020002440e-04  -4.4717687872271300e-04  7.5777040399882661e-05  4.0257878589038020e-05  -2.7512749933029816e-05  7.0068173970198958e-06  2.0951367129928454e-07  -1.0158348131268250e-06  5.3860840660765510e-07  -1.9079672456275290e-07  5.2966035141352680e-08  -1.2032825845113819e-08  2.2293490332779699e-09  -3.1632309208893944e-10  2.5351587287643182e-11  2.6090042765718463e-12  -1.6084436276687373e-12  3.9108843131493333e-13  -6.2326734268664674e-14  5.3645829047311432e-15  5.7932514030210402e-16  0.0000000000000000e+00  0.0000000000000000e+00  -5.7090530108086933e-09  4.7110455271843531e-08  -2.6877519001938326e-07  1.2298385001746507e-06  -4.5835083380187209e-06  1.3429178213444227e-05  -2.7077370714034667e-05  1.4738446657857092e-05  1.3797697134713618e-04  -5.6654024189114322e-04  7.1974170510391501e-04  1.9136939520315026e-03  -7.6413164897488634e-03  -3.7599562356924886e-03  4.1654866135272355e-02  7.0308726621283665e-02  3.3657150025211531e-02  -6.1717887405879105e-03  -5.6029256406588011e-03  1.9622857980508604e-03  3.1638157406165365e-04  -4.0376512139605612e-04  1.2523760760262554e-04  -3.8520104930491724e-06  -1.4462374227266407e-05  8.3541604316043636e-06  -3.0338171589537111e-06  8.4616570601415292e-07  -1.9079672456275319e-07  3.4668596363091513e-08  -4.7214212788846060e-09  3.2573175181105085e-10  5.4500597061633442e-11  -2.6581263982780161e-11  5.9994768888176293e-12  -8.7889694589323322e-13  5.9564214608537437e-14  1.1272151673191560e-14  -4.9359019798428968e-15  0.0000000000000000e+00  0.0000000000000000e+00  1.5450760954368482e-09  3.8103808514987509e-09  -8.7223750292229696e-08  7.0454549931157606e-07  -4.0851720592999842e-06  1.8805597243265986e-05  -6.9505242633397036e-05  1.9708636539684236e-04  -3.5859413960964741e-04  3.5548456236006000e-06  2.5158184760336326e-03  -7.6413164897488704e-03  2.2848951025752971e-03  4.3179297456059612e-02  -5.0022114747239659e-02  -2.5072778021094322e-01  -2.2961534945025130e-01  -2.8104786363584652e-02  3.8215668805762174e-02  -1.3857835352910622e-03  -5.4224988680786883e-03  2.1854767619586754e-03  -1.9206770500165455e-04  -1.9833037789803029e-04  1.2921893146237252e-04  -4.8409764346209715e-05  1.3577161316471980e-05  -3.0338171589537001e-06  5.3860840660765351e-07  -6.9763802915660918e-08  3.8574864808674553e-09  1.0791953517110542e-09  -4.3590038482676452e-10  9.0835798491267914e-11  -1.2000782129770757e-11  5.1150224939375737e-13  2.3451010592451381e-13  -8.1043244831914533e-14  1.3760004848266530e-14  0.0000000000000000e+00  0.0000000000000000e+00  1.5653235558100159e-09  -9.1325175586785894e-09  2.8659236588755401e-08  3.2506167586129935e-08  -1.2202936581909704e-06  1.0476263978764432e-05  -6.2312323465295641e-05  2.8923570629599071e-04  -1.0586897131041220e-03  2.8783270725676298e-03  -4.4946734586510271e-03  -3.7599562356925029e-03  4.3179297456059640e-02  -8.4840935054435254e-02  -1.2436801633458765e-01  5.9144908245437244e-01  1.1221424142238829e+00  4.8427922426992498e-01  -1.3976237971837521e-01  -5.8097905350504374e-02  3.6726097002966994e-02  -5.4834993749946163e-03  -2.5347232198618692e-03  1.9888885273588223e-03  -7.7597780589337456e-04  2.1909706263726267e-04  -4.8409764346209952e-05  8.3541604316043806e-06  -1.0158348131268299e-06  3.8456970119179781e-08  2.0627482622930087e-08  -7.0812237926931315e-09  1.3506344929091020e-09  -1.5593264963911306e-10  1.0869443328817924e-12  4.5453403134869980e-12  -1.2730368585425226e-12  2.0321832782618775e-13  -1.2457328801214501e-14  0.0000000000000000e+00  0.0000000000000000e+00  -1.4857800288222973e-10  -2.0758412794170520e-09  2.3345604638528361e-08  -1.3991554801721938e-07  4.9648034086373768e-07  5.1175613740272994e-08  -1.6693994552252447e-05  1.5543847126791023e-04  -9.5519439599054171e-04  4.4839336628348441e-03  -1.6222869121106428e-02  4.1654866135272417e-02  -5.0022114747239693e-02  -1.2436801633458772e-01  6.7444774205491176e-01  -3.7914979895476447e-01  -3.9265061840353956e+00  -3.6288023648807011e+00  -1.3988219984507222e-01  5.6867120599633303e-01  -1.3297815361394039e-01  -2.7455334631574280e-02  3.0327644606960896e-02  -1.2514707729097765e-02  3.5630968763341758e-03  -7.7597780589337337e-04  1.2921893146237271e-04  -1.4462374227266364e-05  2.0951367129928033e-07  3.8420892004831859e-07  -1.1362571676692919e-07  1.9564318704116626e-08  -1.8633791061024178e-09  -9.4735593051186269e-11  8.2821207216532901e-11  -1.9338020096806542e-11  2.6255314731116449e-12  -1.0085888885239412e-13  -5.4831840823580758e-14  0.0000000000000000e+00  0.0000000000000000e+00  -3.0002437352182609e-10  1.6955232118542409e-09  -4.1484062459347975e-09  -1.9786440643913785e-08  3.1105461500547891e-07  -2.1029262455336397e-06  8.4965500859136633e-06  -6.9326746161800537e-06  -2.2007332259722236e-04  2.2967631717167518e-03  -1.4740100228816916e-02  7.0308726621283665e-02  -2.5072778021094339e-01  5.9144908245437278e-01  -3.7914979895476425e-01  -3.0659546846602819e+00  7.9995319087985477e+00  1.8478458269430874e+01  6.6366694223202911e+00  -2.9618727684241066e+00  -1.4645930456256831e-01  4.5338602157681707e-01  -2.0359390185673015e-01  5.8594021794539902e-02  -1.2514707729097763e-02  1.9888885273588201e-03  -1.9833037789803094e-04  -3.8520104930490673e-06  7.0068173970198653e-06  -1.7918168583307220e-06  2.7222399809993494e-07  -1.8793561396614395e-08  -3.2381484616547345e-09  1.4304968539897489e-09  -2.8003877973665138e-10  3.0301546569141209e-11  5.7692185446971051e-13  -1.0826487588904477e-12  2.4976213313208960e-13  0.0000000000000000e+00  0.0000000000000000e+00  5.0265612577178564e-11  2.8685466905086543e-10  -4.1777293407375922e-09  2.6419438374778724e-08  -8.9860384041366510e-08  -9.9128748341786436e-08  3.8765662624740573e-06  -3.0852623862584540e-05  1.4350316055607772e-04  -2.4238482078903543e-04  -2.7039302468287135e-03  3.3657150025211531e-02  -2.2961534945025130e-01  1.1221424142238836e+00  -3.9265061840353996e+00  7.9995319087985495e+00  3.3056536349690999e+00  -6.2925886987525551e+01  -5.8800725044233083e+01  5.1336865910596918e+00  6.4397526652312918e+00  -3.3566793939003694e+00  9.8041799846652344e-01  -2.0359390185673046e-01  3.0327644606960961e-02  -2.5347232198618809e-03  -1.9206770500165274e-04  1.2523760760262503e-04  -2.7512749933029759e-05  3.5393034622217124e-06  -1.1007166238339164e-07  -7.6941223508594530e-08  2.3381636025420835e-08  -3.7773867241826026e-09  2.7733863155156810e-10  4.2243432892312573e-11  -1.9406920485601917e-11  3.7428748136242303e-12  -3.3435998370452346e-13  0.0000000000000000e+00  0.0000000000000000e+00  4.6177861598061588e-11  -3.3964346138562041e-10  1.2329102572915707e-09  7.9510720992907075e-10  -4.7899993196104750e-08  3.8500003848998140e-07  -1.7111029564011058e-06  1.8196570361637858e-06  4.2322799991724374e-05  -4.3384833974761039e-04  2.3800553125005088e-03  -6.1717887405879210e-03  -2.8104786363584603e-02  4.8427922426992465e-01  -3.6288023648807020e+00  1.8478458269430895e+01  -6.2925886987525558e+01  8.9392483291379676e+01  3.2630230240785733e+02  7.4489610710574766e+01  -5.6646593955860006e+01  1.6916151138573980e+01  -3.3566793939003556e+00  4.5338602157681540e-01  -2.7455334631574034e-02  -5.4834993749946310e-03  2.1854767619586789e-03  -4.0376512139605477e-04  4.0257878589037810e-05  1.4696812438139607e-06  -1.5607460921847248e-06  3.5683049182760051e-07  -4.5150207178161642e-08  9.3170581745437159e-10  1.1152132050882281e-09  -3.1483947912479460e-10  4.7317005280695270e-11  -2.5950209931263607e-12  -7.6693399916649298e-13  0.0000000000000000e+00  0.0000000000000000e+00  -1.7956769746435601e-11  1.5506067018093595e-11  4.9434698179298351e-10  -4.7011843915861606e-09  2.3512037302923676e-08  -4.3134875007241052e-08  -4.2211127575947206e-07  5.0817401419892436e-06  -2.9408456239082531e-05  8.0233046955849367e-05  3.1922913020002397e-04  -5.6029256406588020e-03  3.8215668805762194e-02  -1.3976237971837535e-01  -1.3988219984507097e-01  6.6366694223202893e+00  -5.8800725044233083e+01  3.2630230240785738e+02  -1.0613378972936575e+03  -1.0064753712627048e+03  3.1265970442857281e+02  -5.6646593955860247e+01  6.4397526652313104e+00  -1.4645930456257356e-01  -1.3297815361393939e-01  3.6726097002966765e-02  -5.4224988680786675e-03  3.1638157406164817e-04  7.5777040399883312e-05  -2.8205609372710944e-05  4.9083989321153831e-06  -4.1363121326354089e-07  -4.0156273550549376e-08  2.2502558122615988e-08  -4.533147730840773