<?xml version="1.0"?>
<VTKFile type="UnstructuredGrid"  version="0.1"  >
<UnstructuredGrid>
<Piece  NumberOfPoints="1681" NumberOfCells="3200">
<Points>
<DataArray  type="Float64"  NumberOfComponents="3"  format="ascii">-2 -2 0  -1.9 -2 0  -1.8 -2 0  -1.7 -2 0  -1.6 -2 0  -1.5 -2 0  -1.4 -2 0  -1.3 -2 0  -1.2 -2 0  -1.1 -2 0  -1 -2 0  -0.8999999999999999 -2 0  -0.8 -2 0  -0.7 -2 0  -0.6000000000000001 -2 0  -0.5 -2 0  -0.3999999999999999 -2 0  -0.3 -2 0  -0.2 -2 0  -0.1000000000000001 -2 0  0 -2 0  0.1000000000000001 -2 0  0.2000000000000002 -2 0  0.2999999999999998 -2 0  0.3999999999999999 -2 0  0.5 -2 0  0.6000000000000001 -2 0  0.7000000000000002 -2 0  0.7999999999999998 -2 0  0.8999999999999999 -2 0  1 -2 0  1.1 -2 0  1.2 -2 0  1.3 -2 0  1.4 -2 0  1.5 -2 0  1.6 -2 0  1.7 -2 0  1.8 -2 0  1.9 -2 0  2 -2 0  -2 -1.9 0  -1.9 -1.9 0  -1.8 -1.9 0  -1.7 -1.9 0  -1.6 -1.9 0  -1.5 -1.9 0  -1.4 -1.9 0  -1.3 -1.9 0  -1.2 -1.9 0  -1.1 -1.9 0  -1 -1.9 0  -0.8999999999999999 -1.9 0  -0.8 -1.9 0  -0.7 -1.9 0  -0.6000000000000001 -1.9 0  -0.5 -1.9 0  -0.3999999999999999 -1.9 0  -0.3 -1.9 0  -0.2 -1.9 0  -0.1000000000000001 -1.9 0  0 -1.9 0  0.1000000000000001 -1.9 0  0.2000000000000002 -1.9 0  0.2999999999999998 -1.9 0  0.3999999999999999 -1.9 0  0.5 -1.9 0  0.6000000000000001 -1.9 0  0.7000000000000002 -1.9 0  0.7999999999999998 -1.9 0  0.8999999999999999 -1.9 0  1 -1.9 0  1.1 -1.9 0  1.2 -1.9 0  1.3 -1.9 0  1.4 -1.9 0  1.5 -1.9 0  1.6 -1.9 0  1.7 -1.9 0  1.8 -1.9 0  1.9 -1.9 0  2 -1.9 0  -2 -1.8 0  -1.9 -1.8 0  -1.8 -1.8 0  -1.7 -1.8 0  -1.6 -1.8 0  -1.5 -1.8 0  -1.4 -1.8 0  -1.3 -1.8 0  -1.2 -1.8 0  -1.1 -1.8 0  -1 -1.8 0  -0.8999999999999999 -1.8 0  -0.8 -1.8 0  -0.7 -1.8 0  -0.6000000000000001 -1.8 0  -0.5 -1.8 0  -0.3999999999999999 -1.8 0  -0.3 -1.8 0  -0.2 -1.8 0  -0.1000000000000001 -1.8 0  0 -1.8 0  0.1000000000000001 -1.8 0  0.2000000000000002 -1.8 0  0.2999999999999998 -1.8 0  0.3999999999999999 -1.8 0  0.5 -1.8 0  0.6000000000000001 -1.8 0  0.7000000000000002 -1.8 0  0.7999999999999998 -1.8 0  0.8999999999999999 -1.8 0  1 -1.8 0  1.1 -1.8 0  1.2 -1.8 0  1.3 -1.8 0  1.4 -1.8 0  1.5 -1.8 0  1.6 -1.8 0  1.7 -1.8 0  1.8 -1.8 0  1.9 -1.8 0  2 -1.8 0  -2 -1.7 0  -1.9 -1.7 0  -1.8 -1.7 0  -1.7 -1.7 0  -1.6 -1.7 0  -1.5 -1.7 0  -1.4 -1.7 0  -1.3 -1.7 0  -1.2 -1.7 0  -1.1 -1.7 0  -1 -1.7 0  -0.8999999999999999 -1.7 0  -0.8 -1.7 0  -0.7 -1.7 0  -0.6000000000000001 -1.7 0  -0.5 -1.7 0  -0.3999999999999999 -1.7 0  -0.3 -1.7 0  -0.2 -1.7 0  -0.1000000000000001 -1.7 0  0 -1.7 0  0.1000000000000001 -1.7 0  0.2000000000000002 -1.7 0  0.2999999999999998 -1.7 0  0.3999999999999999 -1.7 0  0.5 -1.7 0  0.6000000000000001 -1.7 0  0.7000000000000002 -1.7 0  0.7999999999999998 -1.7 0  0.8999999999999999 -1.7 0  1 -1.7 0  1.1 -1.7 0  1.2 -1.7 0  1.3 -1.7 0  1.4 -1.7 0  1.5 -1.7 0  1.6 -1.7 0  1.7 -1.7 0  1.8 -1.7 0  1.9 -1.7 0  2 -1.7 0  -2 -1.6 0  -1.9 -1.6 0  -1.8 -1.6 0  -1.7 -1.6 0  -1.6 -1.6 0  -1.5 -1.6 0  -1.4 -1.6 0  -1.3 -1.6 0  -1.2 -1.6 0  -1.1 -1.6 0  -1 -1.6 0  -0.8999999999999999 -1.6 0  -0.8 -1.6 0  -0.7 -1.6 0  -0.6000000000000001 -1.6 0  -0.5 -1.6 0  -0.3999999999999999 -1.6 0  -0.3 -1.6 0  -0.2 -1.6 0  -0.1000000000000001 -1.6 0  0 -1.6 0  0.1000000000000001 -1.6 0  0.2000000000000002 -1.6 0  0.2999999999999998 -1.6 0  0.3999999999999999 -1.6 0  0.5 -1.6 0  0.6000000000000001 -1.6 0  0.7000000000000002 -1.6 0  0.7999999999999998 -1.6 0  0.8999999999999999 -1.6 0  1 -1.6 0  1.1 -1.6 0  1.2 -1.6 0  1.3 -1.6 0  1.4 -1.6 0  1.5 -1.6 0  1.6 -1.6 0  1.7 -1.6 0  1.8 -1.6 0  1.9 -1.6 0  2 -1.6 0  -2 -1.5 0  -1.9 -1.5 0  -1.8 -1.5 0  -1.7 -1.5 0  -1.6 -1.5 0  -1.5 -1.5 0  -1.4 -1.5 0  -1.3 -1.5 0  -1.2 -1.5 0  -1.1 -1.5 0  -1 -1.5 0  -0.8999999999999999 -1.5 0  -0.8 -1.5 0  -0.7 -1.5 0  -0.6000000000000001 -1.5 0  -0.5 -1.5 0  -0.3999999999999999 -1.5 0  -0.3 -1.5 0  -0.2 -1.5 0  -0.1000000000000001 -1.5 0  0 -1.5 0  0.1000000000000001 -1.5 0  0.2000000000000002 -1.5 0  0.2999999999999998 -1.5 0  0.3999999999999999 -1.5 0  0.5 -1.5 0  0.6000000000000001 -1.5 0  0.7000000000000002 -1.5 0  0.7999999999999998 -1.5 0  0.8999999999999999 -1.5 0  1 -1.5 0  1.1 -1.5 0  1.2 -1.5 0  1.3 -1.5 0  1.4 -1.5 0  1.5 -1.5 0  1.6 -1.5 0  1.7 -1.5 0  1.8 -1.5 0  1.9 -1.5 0  2 -1.5 0  -2 -1.4 0  -1.9 -1.4 0  -1.8 -1.4 0  -1.7 -1.4 0  -1.6 -1.4 0  -1.5 -1.4 0  -1.4 -1.4 0  -1.3 -1.4 0  -1.2 -1.4 0  -1.1 -1.4 0  -1 -1.4 0  -0.8999999999999999 -1.4 0  -0.8 -1.4 0  -0.7 -1.4 0  -0.6000000000000001 -1.4 0  -0.5 -1.4 0  -0.3999999999999999 -1.4 0  -0.3 -1.4 0  -0.2 -1.4 0  -0.1000000000000001 -1.4 0  0 -1.4 0  0.1000000000000001 -1.4 0  0.2000000000000002 -1.4 0  0.2999999999999998 -1.4 0  0.3999999999999999 -1.4 0  0.5 -1.4 0  0.6000000000000001 -1.4 0  0.7000000000000002 -1.4 0  0.7999999999999998 -1.4 0  0.8999999999999999 -1.4 0  1 -1.4 0  1.1 -1.4 0  1.2 -1.4 0  1.3 -1.4 0  1.4 -1.4 0  1.5 -1.4 0  1.6 -1.4 0  1.7 -1.4 0  1.8 -1.4 0  1.9 -1.4 0  2 -1.4 0  -2 -1.3 0  -1.9 -1.3 0  -1.8 -1.3 0  -1.7 -1.3 0  -1.6 -1.3 0  -1.5 -1.3 0  -1.4 -1.3 0  -1.3 -1.3 0  -1.2 -1.3 0  -1.1 -1.3 0  -1 -1.3 0  -0.8999999999999999 -1.3 0  -0.8 -1.3 0  -0.7 -1.3 0  -0.6000000000000001 -1.3 0  -0.5 -1.3 0  -0.3999999999999999 -1.3 0  -0.3 -1.3 0  -0.2 -1.3 0  -0.1000000000000001 -1.3 0  0 -1.3 0  0.1000000000000001 -1.3 0  0.2000000000000002 -1.3 0  0.2999999999999998 -1.3 0  0.3999999999999999 -1.3 0  0.5 -1.3 0  0.6000000000000001 -1.3 0  0.7000000000000002 -1.3 0  0.7999999999999998 -1.3 0  0.8999999999999999 -1.3 0  1 -1.3 0  1.1 -1.3 0  1.2 -1.3 0  1.3 -1.3 0  1.4 -1.3 0  1.5 -1.3 0  1.6 -1.3 0  1.7 -1.3 0  1.8 -1.3 0  1.9 -1.3 0  2 -1.3 0  -2 -1.2 0  -1.9 -1.2 0  -1.8 -1.2 0  -1.7 -1.2 0  -1.6 -1.2 0  -1.5 -1.2 0  -1.4 -1.2 0  -1.3 -1.2 0  -1.2 -1.2 0  -1.1 -1.2 0  -1 -1.2 0  -0.8999999999999999 -1.2 0  -0.8 -1.2 0  -0.7 -1.2 0  -0.6000000000000001 -1.2 0  -0.5 -1.2 0  -0.3999999999999999 -1.2 0  -0.3 -1.2 0  -0.2 -1.2 0  -0.1000000000000001 -1.2 0  0 -1.2 0  0.1000000000000001 -1.2 0  0.2000000000000002 -1.2 0  0.2999999999999998 -1.2 0  0.3999999999999999 -1.2 0  0.5 -1.2 0  0.6000000000000001 -1.2 0  0.7000000000000002 -1.2 0  0.7999999999999998 -1.2 0  0.8999999999999999 -1.2 0  1 -1.2 0  1.1 -1.2 0  1.2 -1.2 0  1.3 -1.2 0  1.4 -1.2 0  1.5 -1.2 0  1.6 -1.2 0  1.7 -1.2 0  1.8 -1.2 0  1.9 -1.2 0  2 -1.2 0  -2 -1.1 0  -1.9 -1.1 0  -1.8 -1.1 0  -1.7 -1.1 0  -1.6 -1.1 0  -1.5 -1.1 0  -1.4 -1.1 0  -1.3 -1.1 0  -1.2 -1.1 0  -1.1 -1.1 0  -1 -1.1 0  -0.8999999999999999 -1.1 0  -0.8 -1.1 0  -0.7 -1.1 0  -0.6000000000000001 -1.1 0  -0.5 -1.1 0  -0.3999999999999999 -1.1 0  -0.3 -1.1 0  -0.2 -1.1 0  -0.1000000000000001 -1.1 0  0 -1.1 0  0.1000000000000001 -1.1 0  0.2000000000000002 -1.1 0  0.2999999999999998 -1.1 0  0.3999999999999999 -1.1 0  0.5 -1.1 0  0.6000000000000001 -1.1 0  0.7000000000000002 -1.1 0  0.7999999999999998 -1.1 0  0.8999999999999999 -1.1 0  1 -1.1 0  1.1 -1.1 0  1.2 -1.1 0  1.3 -1.1 0  1.4 -1.1 0  1.5 -1.1 0  1.6 -1.1 0  1.7 -1.1 0  1.8 -1.1 0  1.9 -1.1 0  2 -1.1 0  -2 -1 0  -1.9 -1 0  -1.8 -1 0  -1.7 -1 0  -1.6 -1 0  -1.5 -1 0  -1.4 -1 0  -1.3 -1 0  -1.2 -1 0  -1.1 -1 0  -1 -1 0  -0.8999999999999999 -1 0  -0.8 -1 0  -0.7 -1 0  -0.6000000000000001 -1 0  -0.5 -1 0  -0.3999999999999999 -1 0  -0.3 -1 0  -0.2 -1 0  -0.1000000000000001 -1 0  0 -1 0  0.1000000000000001 -1 0  0.2000000000000002 -1 0  0.2999999999999998 -1 0  0.3999999999999999 -1 0  0.5 -1 0  0.6000000000000001 -1 0  0.7000000000000002 -1 0  0.7999999999999998 -1 0  0.8999999999999999 -1 0  1 -1 0  1.1 -1 0  1.2 -1 0  1.3 -1 0  1.4 -1 0  1.5 -1 0  1.6 -1 0  1.7 -1 0  1.8 -1 0  1.9 -1 0  2 -1 0  -2 -0.8999999999999999 0  -1.9 -0.8999999999999999 0  -1.8 -0.8999999999999999 0  -1.7 -0.8999999999999999 0  -1.6 -0.8999999999999999 0  -1.5 -0.8999999999999999 0  -1.4 -0.8999999999999999 0  -1.3 -0.8999999999999999 0  -1.2 -0.8999999999999999 0  -1.1 -0.8999999999999999 0  -1 -0.8999999999999999 0  -0.8999999999999999 -0.8999999999999999 0  -0.8 -0.8999999999999999 0  -0.7 -0.8999999999999999 0  -0.6000000000000001 -0.8999999999999999 0  -0.5 -0.8999999999999999 0  -0.3999999999999999 -0.8999999999999999 0  -0.3 -0.8999999999999999 0  -0.2 -0.8999999999999999 0  -0.1000000000000001 -0.8999999999999999 0  0 -0.8999999999999999 0  0.1000000000000001 -0.8999999999999999 0  0.2000000000000002 -0.8999999999999999 0  0.2999999999999998 -0.8999999999999999 0  0.3999999999999999 -0.8999999999999999 0  0.5 -0.8999999999999999 0  0.6000000000000001 -0.8999999999999999 0  0.7000000000000002 -0.8999999999999999 0  0.7999999999999998 -0.8999999999999999 0  0.8999999999999999 -0.8999999999999999 0  1 -0.8999999999999999 0  1.1 -0.8999999999999999 0  1.2 -0.8999999999999999 0  1.3 -0.8999999999999999 0  1.4 -0.8999999999999999 0  1.5 -0.8999999999999999 0  1.6 -0.8999999999999999 0  1.7 -0.8999999999999999 0  1.8 -0.8999999999999999 0  1.9 -0.8999999999999999 0  2 -0.8999999999999999 0  -2 -0.8 0  -1.9 -0.8 0  -1.8 -0.8 0  -1.7 -0.8 0  -1.6 -0.8 0  -1.5 -0.8 0  -1.4 -0.8 0  -1.3 -0.8 0  -1.2 -0.8 0  -1.1 -0.8 0  -1 -0.8 0  -0.8999999999999999 -0.8 0  -0.8 -0.8 0  -0.7 -0.8 0  -0.6000000000000001 -0.8 0  -0.5 -0.8 0  -0.3999999999999999 -0.8 0  -0.3 -0.8 0  -0.2 -0.8 0  -0.1000000000000001 -0.8 0  0 -0.8 0  0.1000000000000001 -0.8 0  0.2000000000000002 -0.8 0  0.2999999999999998 -0.8 0  0.3999999999999999 -0.8 0  0.5 -0.8 0  0.6000000000000001 -0.8 0  0.7000000000000002 -0.8 0  0.7999999999999998 -0.8 0  0.8999999999999999 -0.8 0  1 -0.8 0  1.1 -0.8 0  1.2 -0.8 0  1.3 -0.8 0  1.4 -0.8 0  1.5 -0.8 0  1.6 -0.8 0  1.7 -0.8 0  1.8 -0.8 0  1.9 -0.8 0  2 -0.8 0  -2 -0.7 0  -1.9 -0.7 0  -1.8 -0.7 0  -1.7 -0.7 0  -1.6 -0.7 0  -1.5 -0.7 0  -1.4 -0.7 0  -1.3 -0.7 0  -1.2 -0.7 0  -1.1 -0.7 0  -1 -0.7 0  -0.8999999999999999 -0.7 0  -0.8 -0.7 0  -0.7 -0.7 0  -0.6000000000000001 -0.7 0  -0.5 -0.7 0  -0.3999999999999999 -0.7 0  -0.3 -0.7 0  -0.2 -0.7 0  -0.1000000000000001 -0.7 0  0 -0.7 0  0.1000000000000001 -0.7 0  0.2000000000000002 -0.7 0  0.2999999999999998 -0.7 0  0.3999999999999999 -0.7 0  0.5 -0.7 0  0.600000000000000
[...]
<PointData  Scalars="f_1726"> 
<DataArray  type="Float64"  Name="f_1726"  format="ascii">0.0000000000000000e+00  0.0000000000000000e+00  0.0000000000000000e+00  0.0000000000000000e+00  0.0000000000000000e+00  0.0000000000000000e+00  0.0000000000000000e+00  0.0000000000000000e+00  0.0000000000000000e+00  0.0000000000000000e+00  0.0000000000000000e+00  0.0000000000000000e+00  0.0000000000000000e+00  0.0000000000000000e+00  0.0000000000000000e+00  0.0000000000000000e+00  0.0000000000000000e+00  0.0000000000000000e+00  0.0000000000000000e+00  0.0000000000000000e+00  0.0000000000000000e+00  0.0000000000000000e+00  0.0000000000000000e+00  0.0000000000000000e+00  0.0000000000000000e+00  0.0000000000000000e+00  0.0000000000000000e+00  0.0000000000000000e+00  0.0000000000000000e+00  0.0000000000000000e+00  0.0000000000000000e+00  0.0000000000000000e+00  0.0000000000000000e+00  0.0000000000000000e+00  0.0000000000000000e+00  0.0000000000000000e+00  0.0000000000000000e+00  0.0000000000000000e+00  0.0000000000000000e+00  0.0000000000000000e+00  0.0000000000000000e+00  0.0000000000000000e+00  -1.1371846291953377e-11  -1.3252285957717667e-11  8.7084540555400646e-11  -2.0984905146772675e-11  -4.4105278052238650e-10  2.3762635571391884e-10  2.1701056420150824e-09  2.9856884937725917e-10  -9.0077144806577995e-09  -1.7973691838028233e-08  -1.5842979562974461e-08  -5.4606224844464291e-09  1.4778418156127808e-09  1.4972082039012316e-09  -1.4211260286019319e-10  -2.8696875590986438e-10  4.8078294896500320e-11  4.4168423177824291e-11  -1.7175377499520532e-11  -3.1378875274936206e-12  3.7394225353174812e-12  -7.3356072049184423e-13  -3.1981024549243518e-13  2.3889368645942851e-13  -5.2445822853275596e-14  -1.1915245771805944e-14  1.3161235623190091e-14  -4.7211152674751250e-15  5.5411569676257224e-16  3.5473396191213935e-16  -2.6439070233287742e-16  9.9081361671118838e-17  -2.1911453569304749e-17  1.8141551165217882e-19  2.5690981288129473e-18  -1.5454106264392608e-18  6.2878013590451544e-19  -2.0843454245443505e-19  6.6072387640784937e-20  0.0000000000000000e+00  0.0000000000000000e+00  -1.3252285957717638e-11  9.5305134064727077e-11  -8.4783303417096923e-11  -4.1750750851311344e-10  8.7675909552394507e-10  1.6386444870886493e-09  -4.7209397250930925e-09  -9.2218443447304499e-09  1.3750428229683146e-08  5.8934166537824573e-08  7.6938025729366381e-08  4.5060434860718955e-08  3.6445714048556292e-09  -8.7351143221313448e-09  -1.9855106517781545e-09  1.6217421971775647e-09  2.7437213363091786e-10  -3.2486381163849344e-10  1.4831317565982995e-11  5.0927312677241471e-11  -1.7162745313386238e-11  -2.4820981616124678e-12  3.5800029050438862e-12  -1.0355370924674189e-12  -9.6469995142968959e-14  1.9437524368373281e-13  -7.7516632636585300e-14  1.0781641851666961e-14  5.1311420604767706e-15  -4.1330059964533110e-15  1.5570107250606089e-15  -3.3243016890733893e-16  -6.2075783620120380e-18  4.3834552988008993e-17  -2.4867694552402982e-17  9.7218584288390950e-18  -3.0742315589415724e-18  8.3509999426457628e-19  -2.0843454245443526e-19  0.0000000000000000e+00  0.0000000000000000e+00  8.7084540555400608e-11  -8.4783303417097052e-11  -3.8170653079703527e-10  1.1304457366196704e-09  6.2366788667249754e-10  -6.7064202816436411e-09  4.1613383837375638e-10  3.3501576327791125e-08  1.2722837076429576e-08  -1.3627581106023780e-07  -2.9001516725978812e-07  -2.5707938656420125e-07  -8.3428192227632275e-08  2.7412124463958923e-08  2.2329716217521483e-08  -3.9678875600352279e-09  -3.9959346547969350e-09  1.1792599332191715e-09  4.7283537896499810e-10  -3.1120788411073916e-10  1.2677107318870036e-11  4.5257996806695401e-11  -1.8562424653774571e-11  5.5181699036975535e-13  2.5112809722648384e-12  -1.2176404177934990e-12  2.2430535411334489e-13  5.6972266493930821e-14  -5.9614574586228661e-14  2.4157994200582207e-14  -5.5249735180591021e-15  6.3516774896985744e-17  6.3686409127708871e-16  -3.7765729323040548e-16  1.4993860539686313e-16  -4.7873316345194412e-17  1.2972961777180688e-17  -3.0742315589415581e-18  6.2878013590451323e-19  0.0000000000000000e+00  0.0000000000000000e+00  -2.0984905146772688e-11  -4.1750750851311303e-10  1.1304457366196712e-09  2.1215371400013899e-10  -6.8690539392168983e-09  7.8218813491328400e-09  2.9981215293705486e-08  -5.4679152244253099e-08  -1.5106954249703419e-07  1.6424862996678512e-07  8.7274378312735969e-07  1.1763218441967637e-06  6.7388706806058563e-07  3.1091655528148936e-08  -1.3382709636431395e-07  -1.8925429920297013e-08  2.5269791494776796e-08  7.6050796863579507e-10  -4.4966114596626573e-09  9.3642754257129511e-10  4.6107961190531060e-10  -3.0113917937796992e-10  4.0405201884662377e-11  2.8982969013544735e-11  -1.8496522478487323e-11  4.3475489662289978e-12  4.8924413183700420e-13  -8.4065157832122847e-13  3.7407014392789939e-13  -9.2462045666349452e-14  3.9044952060378163e-15  9.1533175275947566e-15  -5.7605279813784036e-15  2.3332717260231662e-15  -7.5152149348247593e-16  2.0440338566535185e-16  -4.7873316345194634e-17  9.7218584288391073e-18  -1.5454106264392670e-18  0.0000000000000000e+00  0.0000000000000000e+00  -4.4105278052238660e-10  8.7675909552394466e-10  6.2366788667249423e-10  -6.8690539392168992e-09  1.0216225714154793e-08  2.2600453567346241e-08  -8.6329590544350926e-08  -4.7991011542769114e-08  4.6573070744221240e-07  3.2066169218011818e-07  -1.8968027705708524e-06  -4.3840561019221190e-06  -3.9074050210449719e-06  -1.1671923478253179e-06  4.7487590451049606e-07  2.9751901433984836e-07  -8.5950092358271632e-08  -4.5815615892210764e-08  2.2488906532907007e-08  2.4210850995295477e-09  -4.3358869461329400e-09  1.0666844906023625e-09  2.6527018831124437e-10  -2.6785283903508254e-10  7.9217226650262551e-11  1.0396457437405253e-12  -1.1478565815504099e-11  5.7384085122295325e-12  -1.5384518976411427e-12  1.0896314599582653e-13  1.2971938811385150e-13  -8.7712620724860198e-14  3.6326652872723987e-14  -1.1805688559951554e-14  3.2180464136626928e-15  -7.5152149348247465e-16  1.4993860539686345e-16  -2.4867694552402938e-17  2.5690981288129457e-18  0.0000000000000000e+00  0.0000000000000000e+00  2.3762635571392008e-10  1.6386444870886491e-09  -6.7064202816436361e-09  7.8218813491328549e-09  2.2600453567346238e-08  -9.3254370363198385e-08  2.5253756335991610e-08  4.9156613153764828e-07  -5.2807567795747719e-07  -2.4013124736794365e-06  1.7467118159907640e-06  1.2844804972231996e-05  1.7987268106567430e-05  1.0020387361464318e-05  4.8948697186105556e-08  -2.0114170104486166e-06  -9.4815142025370468e-08  3.6824668867338673e-07  -4.1257852726605036e-08  -5.1918090820446242e-08  2.1523355030909659e-08  8.9116246180381854e-10  -3.6130130232577978e-09  1.3682485116248330e-09  -9.0613155721844761e-11  -1.4914721076622772e-10  8.6883061463078278e-11  -2.5424575230702708e-11  2.4954729598223127e-12  1.8005698727687191e-12  -1.3313186554701838e-12  5.6555811635296255e-13  -1.8563800699101235e-13  5.0716905820820550e-14  -1.1805688559951552e-14  2.3332717260231623e-15  -3.7765729323040656e-16  4.3834552988008999e-17  1.8141551165215713e-19  0.0000000000000000e+00  0.0000000000000000e+00  2.1701056420150828e-09  -4.7209397250930991e-09  4.1613383837376471e-10  2.9981215293705460e-08  -8.6329590544350939e-08  2.5253756335991584e-08  4.6766335369614491e-07  -9.3340960094007096e-07  -1.4823592763848675e-06  6.1183978243944398e-06  6.8023368465063488e-06  -2.5899093783297037e-05  -6.6480708795707877e-05  -5.9600790871705926e-05  -1.5967552207812322e-05  8.1268210947638784e-06  3.7078767450985281e-06  -1.6366439861806556e-06  -4.0374302340276146e-07  3.6129142802544002e-07  -3.8408865678171460e-08  -4.3185487335238381e-08  2.2364179691768177e-08  -3.0972398161674369e-09  -1.7822938102985335e-09  1.2918613763587479e-09  -4.1693209676935789e-10  5.2128993226558920e-11  2.4248408150566545e-11  -2.0124075394483750e-11  8.8043934821082847e-12  -2.9225266080817946e-12  8.0044495433583429e-13  -1.8563800699101256e-13  3.6326652872724050e-14  -5.7605279813784115e-15  6.3686409127709226e-16  -6.2075783620124494e-18  -2.1911453569304672e-17  0.0000000000000000e+00  0.0000000000000000e+00  2.9856884937725400e-10  -9.2218443447304432e-09  3.3501576327791138e-08  -5.4679152244253125e-08  -4.7991011542769021e-08  4.9156613153764839e-07  -9.3340960094007118e-07  -1.0070230157252910e-06  7.1714612240873128e-06  -2.8930499165589391e-06  -3.6941365731823052e-05  1.4097100351553414e-05  1.8851011476444035e-04  2.7664955958797526e-04  1.4867453666073040e-04  -6.6309979631982989e-06  -2.9510066073871127e-05  1.7404743145395188e-06  4.8606072542895649e-06  -1.3350163235540008e-06  -3.9563197243736770e-07  3.4130294518562421e-07  -7.3593111550445057e-08  -1.7975756002069599e-08  1.8712973658908377e-08  -6.7730829940743259e-09  1.0322339609575041e-09  3.1155747274898330e-10  -3.0255823264212371e-10  1.3704042394395493e-10  -4.6073113131498352e-11  1.2654044792576649e-11  -2.9225266080817809e-12  5.6555811635296023e-13  -8.7712620724859832e-14  9.1533175275946920e-15  6.3516774896992573e-17  -3.3243016890733824e-16  9.9081361671118592e-17  0.0000000000000000e+00  0.0000000000000000e+00  -9.0077144806578077e-09  1.3750428229683174e-08  1.2722837076429505e-08  -1.5106954249703411e-07  4.6573070744221245e-07  -5.2807567795747793e-07  -1.4823592763848660e-06  7.1714612240873162e-06  -6.4065026463630045e-06  -3.1520666281093127e-05  7.2704832541226999e-05  1.3197287722631706e-04  -3.4298984749938142e-04  -1.0126206291101859e-03  -9.1362893038268180e-04  -2.1049679015522005e-04  1.3725859326197480e-04  4.0481115309665436e-05  -2.8128741678866485e-05  -8.2705650012629320e-07  4.6948090200944506e-06  -1.4928299294752104e-06  -1.0528187308353655e-07  2.6037811910592990e-07  -1.0868127211538100e-07  1.9729873797816748e-08  3.6896272238133178e-09  -4.5159677349657303e-09  2.1323384865666510e-09  -7.2750185712461011e-10  2.0043375725636270e-10  -4.6073113131498540e-11  8.8043934821082960e-12  -1.3313186554701895e-12  1.2971938811385271e-13  3.9044952060375496e-15  -5.5249735180590713e-15  1.5570107250605996e-15  -2.6439070233287648e-16  0.0000000000000000e+00  0.0000000000000000e+00  -1.7973691838028216e-08  5.8934166537824539e-08  -1.3627581106023783e-07  1.6424862996678557e-07  3.2066169218011728e-07  -2.4013124736794361e-06  6.1183978243944424e-06  -2.8930499165589523e-06  -3.1520666281093147e-05  8.7452277022058032e-05  3.9403186125850337e-05  -5.4188713563482359e-04  3.4001558409452765e-06  2.7530761231847872e-03  4.2888144376459058e-03  2.1968190859640376e-03  -2.3183739926451287e-04  -4.1496934682166660e-04  7.6741690675017168e-05  5.2788758723442807e-05  -2.6978236922399951e-05  1.4057277852816277e-06  3.3852899996718211e-06  -1.7138456073339128e-06  3.6748999590100821e-07  3.6783507758447759e-08  -6.6728017778168476e-08  3.3159985806066019e-08  -1.1509215142486329e-08  3.1821166676653456e-09  -7.2750185712460887e-10  1.3704042394395519e-10  -2.0124075394483724e-11  1.8005698727687193e-12  1.0896314599582675e-13  -9.2462045666349338e-14  2.4157994200582264e-14  -4.1330059964533062e-15  3.5473396191213989e-16  0.0000000000000000e+00  0.0000000000000000e+00  -1.5842979562974445e-08  7.6938025729366315e-08  -2.9001516725978796e-07  8.7274378312735895e-07  -1.8968027705708533e-06  1.7467118159907678e-06  6.8023368465063369e-06  -3.6941365731823052e-05  7.2704832541227067e-05  3.9403186125850343e-05  -5.4409352122746109e-04  6.8842200807091834e-04  2.4063421570977811e-03  -4.2990868892068147e-03  -1.5516927889306259e-02  -1.4098681967058850e-02  -2.5862682084495390e-03  2.2764867534178757e-03  3.0533781395272128e-04  -4.2771789189113238e-04  7.2479588090878643e-05  3.8506049354107417e-05  -2.6315527392864970e-05  6.7019144068444056e-06  2.0039664408961608e-07  -9.7163056824690721e-07  5.1517075947014371e-07  -1.8249416884614255e-07  5.0661208059772514e-08  -1.1509215142486330e-08  2.1323384865666493e-09  -3.0255823264212485e-10  2.4248408150566645e-11  2.4954729598222844e-12  -1.5384518976411366e-12  3.7407014392789772e-13  -5.9614574586228585e-14  5.1311420604767256e-15  5.5411569676257687e-16  0.0000000000000000e+00  0.0000000000000000e+00  -5.4606224844464242e-09  4.5060434860718916e-08  -2.5707938656420109e-07  1.1763218441967633e-06  -4.3840561019221165e-06  1.2844804972231998e-05  -2.5899093783297037e-05  1.4097100351553501e-05  1.3197287722631695e-04  -5.4188713563482402e-04  6.8842200807091856e-04  1.8304191961482782e-03  -7.3088031510121290e-03  -3.5963410257857540e-03  3.9842246721869909e-02  6.7249229025217003e-02  3.2192552747731931e-02  -5.9032221810344917e-03  -5.3591132669705147e-03  1.8768965587567009e-03  3.0261416976068531e-04  -3.8619520543184253e-04  1.1978786931535318e-04  -3.6843895246452472e-06  -1.3833041265227746e-05  7.9906275533128157e-06  -2.9018000289220204e-06  8.0934464456371491e-07  -1.8249416884614279e-07  3.3159985806066085e-08  -4.5159677349657419e-09  3.1155747274898645e-10  5.2128993226558533e-11  -2.5424575230702666e-11  5.7384085122295284e-12  -8.4065157832122736e-13  5.6972266493930985e-14  1.0781641851666936e-14  -4.7211152674751218e-15  0.0000000000000000e+00  0.0000000000000000e+00  1.4778418156127841e-09  3.6445714048556023e-09  -8.3428192227632103e-08  6.7388706806058457e-07  -3.9074050210449694e-06  1.7987268106567420e-05  -6.6480708795707864e-05  1.8851011476444030e-04  -3.4298984749938174e-04  3.4001558409460049e-06  2.4063421570977824e-03  -7.3088031510121325e-03  2.1854674581059559e-03  4.1300342124124027e-02  -4.7845392920890649e-02  -2.3981731322219399e-01  -2.1962359389695998e-01  -2.6881801245670068e-02  3.6552706717526660e-02  -1.3254809014838925e-03  -5.1865377996764160e-03  2.0903753254685985e-03  -1.8370984232978662e-04  -1.8969999382530351e-04  1.2359594511097760e-04  -4.6303204253873371e-05  1.2986348562417916e-05  -2.9018000289220081e-06  5.1517075947014191e-07  -6.6728017778168212e-08  3.6896272238132867e-09  1.0322339609575084e-09  -4.1693209676935701e-10  8.6883061463078006e-11  -1.1478565815504038e-11  4.8924413183699421e-13  2.2430535411334674e-13  -7.7516632636585325e-14  1.3161235623190090e-14  0.0000000000000000e+00  0.0000000000000000e+00  1.4972082039012310e-09  -8.7351143221313448e-09  2.7412124463958952e-08  3.1091655528148671e-08  -1.1671923478253164e-06  1.0020387361464310e-05  -5.9600790871705892e-05  2.7664955958797520e-04  -1.0126206291101857e-03  2.7530761231847889e-03  -4.2990868892068199e-03  -3.5963410257857549e-03  4.1300342124124027e-02  -8.1149065647593846e-02  -1.1895611847654756e-01  5.6571206326880208e-01  1.0733121738860765e+00  4.6320572182321240e-01  -1.3368059321309259e-01  -5.5569763961828299e-02  3.5127953914716618e-02  -5.2448838579451209e-03  -2.4244242574068399e-03  1.9023416652448823e-03  -7.4221098425087881e-04  2.0956301233288619e-04  -4.6303204253873581e-05  7.9906275533128310e-06  -9.7163056824691314e-07  3.6783507758448983e-08  1.9729873797816503e-08  -6.7730829940743077e-09  1.2918613763587411e-09  -1.4914721076622697e-10  1.0396457437404600e-12  4.3475489662289930e-12  -1.2176404177935008e-12  1.9437524368373233e-13  -1.1915245771805885e-14  0.0000000000000000e+00  0.0000000000000000e+00  -1.4211260286019407e-10  -1.9855106517781504e-09  2.2329716217521473e-08  -1.3382709636431395e-07  4.7487590451049690e-07  4.8948697186100090e-08  -1.5967552207812291e-05  1.4867453666073029e-04  -9.1362893038268137e-04  4.2888144376459058e-03  -1.5516927889306264e-02  3.9842246721869944e-02  -4.7845392920890698e-02  -1.1895611847654751e-01  6.4509902042886902e-01  -3.6265102342296401e-01  -3.7556435214856148e+00  -3.4708943405787407e+00  -1.3379519934421277e-01  5.4392537043213940e-01  -1.2719158399644886e-01  -2.6260610529159945e-02  2.9007931390290662e-02  -1.1970127844741546e-02  3.4080480388489435e-03  -7.4221098425087805e-04  1.2359594511097787e-04  -1.3833041265227732e-05  2.0039664408961653e-07  3.6748999590100821e-07  -1.0868127211538092e-07  1.8712973658908433e-08  -1.7822938102985333e-09  -9.0613155721844516e-11  7.9217226650262500e-11  -1.8496522478487297e-11  2.5112809722648428e-12  -9.6469995142968858e-14  -5.2445822853275571e-14  0.0000000000000000e+00  0.0000000000000000e+00  -2.8696875590986427e-10  1.6217421971775662e-09  -3.9678875600352453e-09  -1.8925429920296903e-08  2.9751901433984794e-07  -2.0114170104486170e-06  8.1268210947638919e-06  -6.6309979631984073e-06  -2.1049679015521940e-04  2.1968190859640341e-03  -1.4098681967058836e-02  6.7249229025216975e-02  -2.3981731322219399e-01  5.6571206326880219e-01  -3.6265102342296429e-01  -2.9325390840920313e+00  7.6514307580486625e+00  1.7674364647328098e+01  6.3478734915839823e+00  -2.8329863122141923e+00  -1.4008610010041950e-01  4.3365684271433713e-01  -1.9473447453898463e-01  5.6044291804550235e-02  -1.1970127844741548e-02  1.9023416652448812e-03  -1.8969999382530446e-04  -3.6843895246451002e-06  6.7019144068443793e-06  -1.7138456073339071e-06  2.6037811910592852e-07  -1.7975756002069437e-08  -3.0972398161674658e-09  1.3682485116248382e-09  -2.6785283903508321e-10  2.8982969013544780e-11  5.5181699036975010e-13  -1.0355370924674179e-12  2.3889368645942866e-13  0.0000000000000000e+00  0.0000000000000000e+00  4.8078294896500475e-11  2.7437213363091683e-10  -3.9959346547969309e-09  2.5269791494776800e-08  -8.5950092358271804e-08  -9.4815142025369237e-08  3.7078767450985238e-06  -2.9510066073871113e-05  1.3725859326197483e-04  -2.3183739926451336e-04  -2.5862682084495333e-03  3.2192552747731903e-02  -2.1962359389695985e-01  1.0733121738860762e+00  -3.7556435214856161e+00  7.6514307580486660e+00  3.1618074890405352e+00  -6.0187655060702127e+01  -5.6242000323063841e+01  4.9102932437600089e+00  6.1595256045896472e+00  -3.2106128523781119e+00  9.3775492300498031e-01  -1.9473447453898504e-01  2.9007931390290745e-02  -2.4244242574068551e-03  -1.8370984232978448e-04  1.1978786931535266e-04  -2.6315527392864943e-05  3.3852899996718185e-06  -1.0528187308353660e-07  -7.3593111550445216e-08  2.2364179691768154e-08  -3.6130130232577958e-09  2.6527018831124365e-10  4.0405201884662532e-11  -1.8562424653774662e-11  3.5800029050438906e-12  -3.1981024549243624e-13  0.0000000000000000e+00  0.0000000000000000e+00  4.4168423177824298e-11  -3.2486381163849364e-10  1.1792599332191736e-09  7.6050796863578245e-10  -4.5815615892210705e-08  3.6824668867338678e-07  -1.6366439861806575e-06  1.7404743145395311e-06  4.0481115309665381e-05  -4.1496934682166644e-04  2.2764867534178766e-03  -5.9032221810345021e-03  -2.6881801245669988e-02  4.6320572182321185e-01  -3.4708943405787389e+00  1.7674364647328101e+01  -6.0187655060702127e+01  8.5502552398311579e+01  3.1210319572818020e+02  7.1248181149084786e+01  -5.4181606658239758e+01  1.6180041608075101e+01  -3.2106128523781012e+00  4.3365684271433591e-01  -2.6260610529159765e-02  -5.2448838579451295e-03  2.0903753254686019e-03  -3.8619520543184144e-04  3.8506049354107247e-05  1.4057277852816626e-06  -1.4928299294752140e-06  3.4130294518562585e-07  -4.3185487335238461e-08  8.9116246180383478e-10  1.0666844906023600e-09  -3.0113917937796904e-10  4.5257996806695401e-11  -2.4820981616124464e-12  -7.3356072049184645e-13  0.0000000000000000e+00  0.0000000000000000e+00  -1.7175377499520542e-11  1.4831317565983031e-11  4.7283537896499821e-10  -4.4966114596626581e-09  2.2488906532907017e-08  -4.1257852726605109e-08  -4.0374302340276120e-07  4.8606072542895666e-06  -2.8128741678866508e-05  7.6741690675017222e-05  3.0533781395272118e-04  -5.3591132669705182e-03  3.6552706717526674e-02  -1.3368059321309275e-01  -1.3379519934421161e-01  6.3478734915839805e+00  -5.6242000323063813e+01  3.1210319572818020e+02  -1.0151535770616160e+03  -9.6267840427359704e+02  2.9905425799176362e+02  -5.4181606658239978e+01  6.1595256045896694e+00  -1.4008610010042480e-01  -1.2719158399644789e-01  3.5127953914716417e-02  -5.1865377996764012e-03  3.0261416976068087e-04  7.2479588090879212e-05  -2.6978236922400025e-05  4.6948090200944590e-06  -3.9563197243736960e-07  -3.8408865678171394e-08  2.1523355030909686e-08  -4.335886946132945