<?xml version="1.0"?>
<VTKFile type="UnstructuredGrid"  version="0.1"  >
<UnstructuredGrid>
<Piece  NumberOfPoints="1681" NumberOfCells="3200">
<Points>
<DataArray  type="Float64"  NumberOfComponents="3"  format="ascii">-2 -2 0  -1.9 -2 0  -1.8 -2 0  -1.7 -2 0  -1.6 -2 0  -1.5 -2 0  -1.4 -2 0  -1.3 -2 0  -1.2 -2 0  -1.1 -2 0  -1 -2 0  -0.8999999999999999 -2 0  -0.8 -2 0  -0.7 -2 0  -0.6000000000000001 -2 0  -0.5 -2 0  -0.3999999999999999 -2 0  -0.3 -2 0  -0.2 -2 0  -0.1000000000000001 -2 0  0 -2 0  0.1000000000000001 -2 0  0.2000000000000002 -2 0  0.2999999999999998 -2 0  0.3999999999999999 -2 0  0.5 -2 0  0.6000000000000001 -2 0  0.7000000000000002 -2 0  0.7999999999999998 -2 0  0.8999999999999999 -2 0  1 -2 0  1.1 -2 0  1.2 -2 0  1.3 -2 0  1.4 -2 0  1.5 -2 0  1.6 -2 0  1.7 -2 0  1.8 -2 0  1.9 -2 0  2 -2 0  -2 -1.9 0  -1.9 -1.9 0  -1.8 -1.9 0  -1.7 -1.9 0  -1.6 -1.9 0  -1.5 -1.9 0  -1.4 -1.9 0  -1.3 -1.9 0  -1.2 -1.9 0  -1.1 -1.9 0  -1 -1.9 0  -0.8999999999999999 -1.9 0  -0.8 -1.9 0  -0.7 -1.9 0  -0.6000000000000001 -1.9 0  -0.5 -1.9 0  -0.3999999999999999 -1.9 0  -0.3 -1.9 0  -0.2 -1.9 0  -0.1000000000000001 -1.9 0  0 -1.9 0  0.1000000000000001 -1.9 0  0.2000000000000002 -1.9 0  0.2999999999999998 -1.9 0  0.3999999999999999 -1.9 0  0.5 -1.9 0  0.6000000000000001 -1.9 0  0.7000000000000002 -1.9 0  0.7999999999999998 -1.9 0  0.8999999999999999 -1.9 0  1 -1.9 0  1.1 -1.9 0  1.2 -1.9 0  1.3 -1.9 0  1.4 -1.9 0  1.5 -1.9 0  1.6 -1.9 0  1.7 -1.9 0  1.8 -1.9 0  1.9 -1.9 0  2 -1.9 0  -2 -1.8 0  -1.9 -1.8 0  -1.8 -1.8 0  -1.7 -1.8 0  -1.6 -1.8 0  -1.5 -1.8 0  -1.4 -1.8 0  -1.3 -1.8 0  -1.2 -1.8 0  -1.1 -1.8 0  -1 -1.8 0  -0.8999999999999999 -1.8 0  -0.8 -1.8 0  -0.7 -1.8 0  -0.6000000000000001 -1.8 0  -0.5 -1.8 0  -0.3999999999999999 -1.8 0  -0.3 -1.8 0  -0.2 -1.8 0  -0.1000000000000001 -1.8 0  0 -1.8 0  0.1000000000000001 -1.8 0  0.2000000000000002 -1.8 0  0.2999999999999998 -1.8 0  0.3999999999999999 -1.8 0  0.5 -1.8 0  0.6000000000000001 -1.8 0  0.7000000000000002 -1.8 0  0.7999999999999998 -1.8 0  0.8999999999999999 -1.8 0  1 -1.8 0  1.1 -1.8 0  1.2 -1.8 0  1.3 -1.8 0  1.4 -1.8 0  1.5 -1.8 0  1.6 -1.8 0  1.7 -1.8 0  1.8 -1.8 0  1.9 -1.8 0  2 -1.8 0  -2 -1.7 0  -1.9 -1.7 0  -1.8 -1.7 0  -1.7 -1.7 0  -1.6 -1.7 0  -1.5 -1.7 0  -1.4 -1.7 0  -1.3 -1.7 0  -1.2 -1.7 0  -1.1 -1.7 0  -1 -1.7 0  -0.8999999999999999 -1.7 0  -0.8 -1.7 0  -0.7 -1.7 0  -0.6000000000000001 -1.7 0  -0.5 -1.7 0  -0.3999999999999999 -1.7 0  -0.3 -1.7 0  -0.2 -1.7 0  -0.1000000000000001 -1.7 0  0 -1.7 0  0.1000000000000001 -1.7 0  0.2000000000000002 -1.7 0  0.2999999999999998 -1.7 0  0.3999999999999999 -1.7 0  0.5 -1.7 0  0.6000000000000001 -1.7 0  0.7000000000000002 -1.7 0  0.7999999999999998 -1.7 0  0.8999999999999999 -1.7 0  1 -1.7 0  1.1 -1.7 0  1.2 -1.7 0  1.3 -1.7 0  1.4 -1.7 0  1.5 -1.7 0  1.6 -1.7 0  1.7 -1.7 0  1.8 -1.7 0  1.9 -1.7 0  2 -1.7 0  -2 -1.6 0  -1.9 -1.6 0  -1.8 -1.6 0  -1.7 -1.6 0  -1.6 -1.6 0  -1.5 -1.6 0  -1.4 -1.6 0  -1.3 -1.6 0  -1.2 -1.6 0  -1.1 -1.6 0  -1 -1.6 0  -0.8999999999999999 -1.6 0  -0.8 -1.6 0  -0.7 -1.6 0  -0.6000000000000001 -1.6 0  -0.5 -1.6 0  -0.3999999999999999 -1.6 0  -0.3 -1.6 0  -0.2 -1.6 0  -0.1000000000000001 -1.6 0  0 -1.6 0  0.1000000000000001 -1.6 0  0.2000000000000002 -1.6 0  0.2999999999999998 -1.6 0  0.3999999999999999 -1.6 0  0.5 -1.6 0  0.6000000000000001 -1.6 0  0.7000000000000002 -1.6 0  0.7999999999999998 -1.6 0  0.8999999999999999 -1.6 0  1 -1.6 0  1.1 -1.6 0  1.2 -1.6 0  1.3 -1.6 0  1.4 -1.6 0  1.5 -1.6 0  1.6 -1.6 0  1.7 -1.6 0  1.8 -1.6 0  1.9 -1.6 0  2 -1.6 0  -2 -1.5 0  -1.9 -1.5 0  -1.8 -1.5 0  -1.7 -1.5 0  -1.6 -1.5 0  -1.5 -1.5 0  -1.4 -1.5 0  -1.3 -1.5 0  -1.2 -1.5 0  -1.1 -1.5 0  -1 -1.5 0  -0.8999999999999999 -1.5 0  -0.8 -1.5 0  -0.7 -1.5 0  -0.6000000000000001 -1.5 0  -0.5 -1.5 0  -0.3999999999999999 -1.5 0  -0.3 -1.5 0  -0.2 -1.5 0  -0.1000000000000001 -1.5 0  0 -1.5 0  0.1000000000000001 -1.5 0  0.2000000000000002 -1.5 0  0.2999999999999998 -1.5 0  0.3999999999999999 -1.5 0  0.5 -1.5 0  0.6000000000000001 -1.5 0  0.7000000000000002 -1.5 0  0.7999999999999998 -1.5 0  0.8999999999999999 -1.5 0  1 -1.5 0  1.1 -1.5 0  1.2 -1.5 0  1.3 -1.5 0  1.4 -1.5 0  1.5 -1.5 0  1.6 -1.5 0  1.7 -1.5 0  1.8 -1.5 0  1.9 -1.5 0  2 -1.5 0  -2 -1.4 0  -1.9 -1.4 0  -1.8 -1.4 0  -1.7 -1.4 0  -1.6 -1.4 0  -1.5 -1.4 0  -1.4 -1.4 0  -1.3 -1.4 0  -1.2 -1.4 0  -1.1 -1.4 0  -1 -1.4 0  -0.8999999999999999 -1.4 0  -0.8 -1.4 0  -0.7 -1.4 0  -0.6000000000000001 -1.4 0  -0.5 -1.4 0  -0.3999999999999999 -1.4 0  -0.3 -1.4 0  -0.2 -1.4 0  -0.1000000000000001 -1.4 0  0 -1.4 0  0.1000000000000001 -1.4 0  0.2000000000000002 -1.4 0  0.2999999999999998 -1.4 0  0.3999999999999999 -1.4 0  0.5 -1.4 0  0.6000000000000001 -1.4 0  0.7000000000000002 -1.4 0  0.7999999999999998 -1.4 0  0.8999999999999999 -1.4 0  1 -1.4 0  1.1 -1.4 0  1.2 -1.4 0  1.3 -1.4 0  1.4 -1.4 0  1.5 -1.4 0  1.6 -1.4 0  1.7 -1.4 0  1.8 -1.4 0  1.9 -1.4 0  2 -1.4 0  -2 -1.3 0  -1.9 -1.3 0  -1.8 -1.3 0  -1.7 -1.3 0  -1.6 -1.3 0  -1.5 -1.3 0  -1.4 -1.3 0  -1.3 -1.3 0  -1.2 -1.3 0  -1.1 -1.3 0  -1 -1.3 0  -0.8999999999999999 -1.3 0  -0.8 -1.3 0  -0.7 -1.3 0  -0.6000000000000001 -1.3 0  -0.5 -1.3 0  -0.3999999999999999 -1.3 0  -0.3 -1.3 0  -0.2 -1.3 0  -0.1000000000000001 -1.3 0  0 -1.3 0  0.1000000000000001 -1.3 0  0.2000000000000002 -1.3 0  0.2999999999999998 -1.3 0  0.3999999999999999 -1.3 0  0.5 -1.3 0  0.6000000000000001 -1.3 0  0.7000000000000002 -1.3 0  0.7999999999999998 -1.3 0  0.8999999999999999 -1.3 0  1 -1.3 0  1.1 -1.3 0  1.2 -1.3 0  1.3 -1.3 0  1.4 -1.3 0  1.5 -1.3 0  1.6 -1.3 0  1.7 -1.3 0  1.8 -1.3 0  1.9 -1.3 0  2 -1.3 0  -2 -1.2 0  -1.9 -1.2 0  -1.8 -1.2 0  -1.7 -1.2 0  -1.6 -1.2 0  -1.5 -1.2 0  -1.4 -1.2 0  -1.3 -1.2 0  -1.2 -1.2 0  -1.1 -1.2 0  -1 -1.2 0  -0.8999999999999999 -1.2 0  -0.8 -1.2 0  -0.7 -1.2 0  -0.6000000000000001 -1.2 0  -0.5 -1.2 0  -0.3999999999999999 -1.2 0  -0.3 -1.2 0  -0.2 -1.2 0  -0.1000000000000001 -1.2 0  0 -1.2 0  0.1000000000000001 -1.2 0  0.2000000000000002 -1.2 0  0.2999999999999998 -1.2 0  0.3999999999999999 -1.2 0  0.5 -1.2 0  0.6000000000000001 -1.2 0  0.7000000000000002 -1.2 0  0.7999999999999998 -1.2 0  0.8999999999999999 -1.2 0  1 -1.2 0  1.1 -1.2 0  1.2 -1.2 0  1.3 -1.2 0  1.4 -1.2 0  1.5 -1.2 0  1.6 -1.2 0  1.7 -1.2 0  1.8 -1.2 0  1.9 -1.2 0  2 -1.2 0  -2 -1.1 0  -1.9 -1.1 0  -1.8 -1.1 0  -1.7 -1.1 0  -1.6 -1.1 0  -1.5 -1.1 0  -1.4 -1.1 0  -1.3 -1.1 0  -1.2 -1.1 0  -1.1 -1.1 0  -1 -1.1 0  -0.8999999999999999 -1.1 0  -0.8 -1.1 0  -0.7 -1.1 0  -0.6000000000000001 -1.1 0  -0.5 -1.1 0  -0.3999999999999999 -1.1 0  -0.3 -1.1 0  -0.2 -1.1 0  -0.1000000000000001 -1.1 0  0 -1.1 0  0.1000000000000001 -1.1 0  0.2000000000000002 -1.1 0  0.2999999999999998 -1.1 0  0.3999999999999999 -1.1 0  0.5 -1.1 0  0.6000000000000001 -1.1 0  0.7000000000000002 -1.1 0  0.7999999999999998 -1.1 0  0.8999999999999999 -1.1 0  1 -1.1 0  1.1 -1.1 0  1.2 -1.1 0  1.3 -1.1 0  1.4 -1.1 0  1.5 -1.1 0  1.6 -1.1 0  1.7 -1.1 0  1.8 -1.1 0  1.9 -1.1 0  2 -1.1 0  -2 -1 0  -1.9 -1 0  -1.8 -1 0  -1.7 -1 0  -1.6 -1 0  -1.5 -1 0  -1.4 -1 0  -1.3 -1 0  -1.2 -1 0  -1.1 -1 0  -1 -1 0  -0.8999999999999999 -1 0  -0.8 -1 0  -0.7 -1 0  -0.6000000000000001 -1 0  -0.5 -1 0  -0.3999999999999999 -1 0  -0.3 -1 0  -0.2 -1 0  -0.1000000000000001 -1 0  0 -1 0  0.1000000000000001 -1 0  0.2000000000000002 -1 0  0.2999999999999998 -1 0  0.3999999999999999 -1 0  0.5 -1 0  0.6000000000000001 -1 0  0.7000000000000002 -1 0  0.7999999999999998 -1 0  0.8999999999999999 -1 0  1 -1 0  1.1 -1 0  1.2 -1 0  1.3 -1 0  1.4 -1 0  1.5 -1 0  1.6 -1 0  1.7 -1 0  1.8 -1 0  1.9 -1 0  2 -1 0  -2 -0.8999999999999999 0  -1.9 -0.8999999999999999 0  -1.8 -0.8999999999999999 0  -1.7 -0.8999999999999999 0  -1.6 -0.8999999999999999 0  -1.5 -0.8999999999999999 0  -1.4 -0.8999999999999999 0  -1.3 -0.8999999999999999 0  -1.2 -0.8999999999999999 0  -1.1 -0.8999999999999999 0  -1 -0.8999999999999999 0  -0.8999999999999999 -0.8999999999999999 0  -0.8 -0.8999999999999999 0  -0.7 -0.8999999999999999 0  -0.6000000000000001 -0.8999999999999999 0  -0.5 -0.8999999999999999 0  -0.3999999999999999 -0.8999999999999999 0  -0.3 -0.8999999999999999 0  -0.2 -0.8999999999999999 0  -0.1000000000000001 -0.8999999999999999 0  0 -0.8999999999999999 0  0.1000000000000001 -0.8999999999999999 0  0.2000000000000002 -0.8999999999999999 0  0.2999999999999998 -0.8999999999999999 0  0.3999999999999999 -0.8999999999999999 0  0.5 -0.8999999999999999 0  0.6000000000000001 -0.8999999999999999 0  0.7000000000000002 -0.8999999999999999 0  0.7999999999999998 -0.8999999999999999 0  0.8999999999999999 -0.8999999999999999 0  1 -0.8999999999999999 0  1.1 -0.8999999999999999 0  1.2 -0.8999999999999999 0  1.3 -0.8999999999999999 0  1.4 -0.8999999999999999 0  1.5 -0.8999999999999999 0  1.6 -0.8999999999999999 0  1.7 -0.8999999999999999 0  1.8 -0.8999999999999999 0  1.9 -0.8999999999999999 0  2 -0.8999999999999999 0  -2 -0.8 0  -1.9 -0.8 0  -1.8 -0.8 0  -1.7 -0.8 0  -1.6 -0.8 0  -1.5 -0.8 0  -1.4 -0.8 0  -1.3 -0.8 0  -1.2 -0.8 0  -1.1 -0.8 0  -1 -0.8 0  -0.8999999999999999 -0.8 0  -0.8 -0.8 0  -0.7 -0.8 0  -0.6000000000000001 -0.8 0  -0.5 -0.8 0  -0.3999999999999999 -0.8 0  -0.3 -0.8 0  -0.2 -0.8 0  -0.1000000000000001 -0.8 0  0 -0.8 0  0.1000000000000001 -0.8 0  0.2000000000000002 -0.8 0  0.2999999999999998 -0.8 0  0.3999999999999999 -0.8 0  0.5 -0.8 0  0.6000000000000001 -0.8 0  0.7000000000000002 -0.8 0  0.7999999999999998 -0.8 0  0.8999999999999999 -0.8 0  1 -0.8 0  1.1 -0.8 0  1.2 -0.8 0  1.3 -0.8 0  1.4 -0.8 0  1.5 -0.8 0  1.6 -0.8 0  1.7 -0.8 0  1.8 -0.8 0  1.9 -0.8 0  2 -0.8 0  -2 -0.7 0  -1.9 -0.7 0  -1.8 -0.7 0  -1.7 -0.7 0  -1.6 -0.7 0  -1.5 -0.7 0  -1.4 -0.7 0  -1.3 -0.7 0  -1.2 -0.7 0  -1.1 -0.7 0  -1 -0.7 0  -0.8999999999999999 -0.7 0  -0.8 -0.7 0  -0.7 -0.7 0  -0.6000000000000001 -0.7 0  -0.5 -0.7 0  -0.3999999999999999 -0.7 0  -0.3 -0.7 0  -0.2 -0.7 0  -0.1000000000000001 -0.7 0  0 -0.7 0  0.1000000000000001 -0.7 0  0.2000000000000002 -0.7 0  0.2999999999999998 -0.7 0  0.3999999999999999 -0.7 0  0.5 -0.7 0  0.600000000000000
[...]
<PointData  Scalars="f_1726"> 
<DataArray  type="Float64"  Name="f_1726"  format="ascii">0.0000000000000000e+00  0.0000000000000000e+00  0.0000000000000000e+00  0.0000000000000000e+00  0.0000000000000000e+00  0.0000000000000000e+00  0.0000000000000000e+00  0.0000000000000000e+00  0.0000000000000000e+00  0.0000000000000000e+00  0.0000000000000000e+00  0.0000000000000000e+00  0.0000000000000000e+00  0.0000000000000000e+00  0.0000000000000000e+00  0.0000000000000000e+00  0.0000000000000000e+00  0.0000000000000000e+00  0.0000000000000000e+00  0.0000000000000000e+00  0.0000000000000000e+00  0.0000000000000000e+00  0.0000000000000000e+00  0.0000000000000000e+00  0.0000000000000000e+00  0.0000000000000000e+00  0.0000000000000000e+00  0.0000000000000000e+00  0.0000000000000000e+00  0.0000000000000000e+00  0.0000000000000000e+00  0.0000000000000000e+00  0.0000000000000000e+00  0.0000000000000000e+00  0.0000000000000000e+00  0.0000000000000000e+00  0.0000000000000000e+00  0.0000000000000000e+00  0.0000000000000000e+00  0.0000000000000000e+00  0.0000000000000000e+00  0.0000000000000000e+00  -4.1418739446266263e-13  -4.8267710014556901e-13  3.1718085194434760e-12  -7.6431592220324872e-13  -1.6064102283403297e-11  8.6548691041003991e-12  7.9039971038911580e-11  1.0874527373693378e-11  -3.2808056801182650e-10  -6.5464097914648893e-10  -5.7703580027781296e-10  -1.9888775673810075e-10  5.3826215666469813e-11  5.4531581681751016e-11  -5.1760503253214151e-12  -1.0452026720287437e-11  1.7511161496686375e-12  1.6087101112588890e-12  -6.2556463328850338e-13  -1.1428869382882042e-13  1.3619790814390818e-13  -2.6717878143996611e-14  -1.1648185255256641e-14  8.7010280483851414e-15  -1.9101910244266257e-15  -4.3397918630843808e-16  4.7936084877752110e-16  -1.7195329424889076e-16  2.0182099791073468e-17  1.2920183023909694e-17  -9.6296848645319999e-18  3.6087588573380301e-18  -7.9806283252189603e-19  6.6075478121346954e-21  9.3572145874401601e-20  -5.6287218830306339e-20  2.2901541182846418e-20  -7.5916397248797303e-21  2.4065001742265805e-21  0.0000000000000000e+00  0.0000000000000000e+00  -4.8267710014556981e-13  3.4712204283939052e-12  -3.0879924538825926e-12  -1.5206532227049646e-11  3.1933474655163062e-11  5.9682998972479895e-11  -1.7194690061324315e-10  -3.3587964374675318e-10  5.0082052597107447e-10  2.1465106242600490e-09  2.8022503640852203e-09  1.6411991183456120e-09  1.3274322351493725e-10  -3.1815187688362530e-10  -7.2316619696113918e-11  5.9067380783577837e-11  9.9932303184719346e-12  -1.1832247134132153e-11  5.4018886831503396e-13  1.8548835785528937e-12  -6.2510454157366593e-13  -9.0403417700630936e-14  1.3039149820887927e-13  -3.7716514907698981e-14  -3.5136472043563510e-15  7.0795694615022153e-15  -2.8233244870698672e-15  3.9269086407994809e-16  1.8688736253412629e-16  -1.5053307449124054e-16  5.6709719671430622e-17  -1.2107830335162065e-17  -2.2609351565926745e-19  1.5965498322278379e-18  -9.0573556382319687e-19  3.5409124504478842e-19  -1.1197020489750013e-19  3.0416159510085541e-20  -7.5916397248797408e-21  0.0000000000000000e+00  0.0000000000000000e+00  3.1718085194434752e-12  -3.0879924538825873e-12  -1.3902582692493383e-11  4.1173294310461486e-11  2.2715341938247736e-11  -2.4426242417566079e-10  1.5156500170577627e-11  1.2202003310067857e-09  4.6339341946505586e-10  -4.9634616633241892e-09  -1.0562983652617703e-08  -9.3633908300738896e-09  -3.0386363547618383e-09  9.9840923953106510e-10  8.1329686858062485e-10  -1.4451910163213248e-10  -1.4554063787201465e-10  4.2951213601952580e-11  1.7221693698221579e-11  -1.1334868529420106e-11  4.6172784215713727e-13  1.6483947544409446e-12  -6.7608390976024424e-13  2.0098375900771632e-14  9.1466319185305005e-14  -4.4349114390965444e-14  8.1696892306722000e-15  2.0750539542950788e-15  -2.1712925663919389e-15  8.7988673224183145e-16  -2.0123156145184097e-16  2.3134191954273419e-18  2.3195976433443126e-17  -1.3755100646550702e-17  5.4610903721619320e-18  -1.7436503846638631e-18  4.7250350549991427e-19  -1.1197020489749964e-19  2.2901541182846352e-20  0.0000000000000000e+00  0.0000000000000000e+00  -7.6431592220324509e-13  -1.5206532227049652e-11  4.1173294310461467e-11  7.7271000479026917e-12  -2.5018589598075078e-10  2.8488994422003677e-10  1.0919811195575816e-09  -1.9915337420186141e-09  -5.5022815630024585e-09  5.9822926148889326e-09  3.1787228237756562e-08  4.2844202004570029e-08  2.4544433833897005e-08  1.1324257699338454e-09  -4.8742741441079983e-09  -6.8930535170178167e-10  9.2038080968807140e-10  2.7699355576080484e-11  -1.6377637690253251e-10  3.4106729373850357e-11  1.6793523073737580e-11  -1.0968144387023776e-11  1.4716454005527601e-12  1.0556228172030756e-12  -6.7368360909042561e-13  1.5834719643505803e-13  1.7819336193903844e-14  -3.0618360285274764e-14  1.3624448860991065e-14  -3.3676689605215033e-15  1.4221021411668829e-16  3.3338374790789229e-16  -2.0981096772514835e-16  8.4982834973662816e-17  -2.7372048590601122e-17  7.4448162202108119e-18  -1.7436503846638715e-18  3.5409124504478895e-19  -5.6287218830306568e-20  0.0000000000000000e+00  0.0000000000000000e+00  -1.6064102283403319e-11  3.1933474655163062e-11  2.2715341938247768e-11  -2.5018589598075073e-10  3.7209717763968953e-10  8.2315771216123136e-10  -3.1443115967804013e-09  -1.7479370999405809e-09  1.6962926096990643e-08  1.1679196796921983e-08  -6.9085685576686589e-08  -1.5967686578019580e-07  -1.4231619591289281e-07  -4.2511685875019365e-08  1.7296014080095041e-08  1.0836290096509371e-08  -3.1304894468093173e-09  -1.6687044552760375e-09  8.1909492636829211e-10  8.8181189175594360e-11  -1.5792244027904364e-10  3.8850970944704312e-11  9.6617176581957782e-12  -9.7557834190802272e-12  2.8852638226430320e-12  3.7866160930154808e-14  -4.1807435180124732e-13  2.0900532851244219e-13  -5.6033766780773799e-14  3.9686749516127754e-15  4.7246624685900398e-15  -3.1946845663248130e-15  1.3230957679712548e-15  -4.2998887418518371e-16  1.1720825494080013e-16  -2.7372048590601073e-17  5.4610903721619435e-18  -9.0573556382319514e-19  9.3572145874401516e-20  0.0000000000000000e+00  0.0000000000000000e+00  8.6548691041004346e-12  5.9682998972479947e-11  -2.4426242417566090e-10  2.8488994422003666e-10  8.2315771216123094e-10  -3.3965271505929342e-09  9.1979677430221129e-10  1.7903908477177966e-08  -1.9233665626229720e-08  -8.7461027104080811e-08  6.3619046315661059e-08  4.6783575571139358e-07  6.5513545639744825e-07  3.6496431856348830e-07  1.7828180956157377e-09  -7.3260185667923309e-08  -3.4533738517801858e-09  1.3412345945007816e-08  -1.5027008001373035e-09  -1.8909698751039593e-09  7.8392743899952885e-10  3.2458076606138648e-11  -1.3159379856564701e-10  4.9834588989151672e-11  -3.3003283643595087e-12  -5.4322660571264271e-12  3.1644702123519745e-12  -9.2601837026024640e-13  9.0890556963664876e-14  6.5580673973560918e-14  -4.8489523244691275e-14  2.0598857618678481e-14  -6.7613402832620727e-15  1.8472201028603206e-15  -4.2998887418518367e-16  8.4982834973662656e-17  -1.3755100646550737e-17  1.5965498322278381e-18  6.6075478121338821e-21  0.0000000000000000e+00  0.0000000000000000e+00  7.9039971038911644e-11  -1.7194690061324338e-10  1.5156500170577701e-11  1.0919811195575818e-09  -3.1443115967804000e-09  9.1979677430221233e-10  1.7033317280250025e-08  -3.3996809370643776e-08  -5.3990751420712418e-08  2.2284536636457231e-07  2.4775591424458668e-07  -9.4330136880572518e-07  -2.4213721194604162e-06  -2.1707905335067204e-06  -5.8157300715364149e-07  2.9599651350249277e-07  1.3504894180004372e-07  -5.9610136375023896e-08  -1.4705199718887737e-08  1.3159020213053455e-08  -1.3989344905905794e-09  -1.5729094483662946e-09  8.1455210332755124e-10  -1.1280821570654983e-10  -6.4915019997836872e-11  4.7052403254833938e-11  -1.5185574478873099e-11  1.8986513997949418e-12  8.8317980509963044e-13  -7.3296262890127724e-13  3.2067517468635016e-13  -1.0644478037886603e-13  2.9153947524047554e-14  -6.7613402832620829e-15  1.3230957679712567e-15  -2.0981096772514859e-16  2.3195976433443265e-17  -2.2609351565928373e-19  -7.9806283252189294e-19  0.0000000000000000e+00  0.0000000000000000e+00  1.0874527373693385e-11  -3.3587964374675334e-10  1.2202003310067872e-09  -1.9915337420186153e-09  -1.7479370999405850e-09  1.7903908477177966e-08  -3.3996809370643776e-08  -3.6677970167634474e-08  2.6120022753002887e-07  -1.0537117511321394e-07  -1.3454849483133333e-06  5.1344707923287077e-07  6.8659486999387805e-06  1.0076179128983273e-05  5.4150502373589360e-06  -2.4151537917002225e-07  -1.0748208394450734e-06  6.3391862935959845e-08  1.7703389603366643e-07  -4.8624200364826835e-08  -1.4409777587822950e-08  1.2430996160130480e-08  -2.6804213089871976e-09  -6.5471616049383473e-10  6.8156723221945123e-10  -2.4669042526366504e-10  3.7596207668352357e-11  1.1347601308556472e-11  -1.1019829395684107e-11  4.9913105288424841e-12  -1.6780830652118167e-12  4.6088785475052778e-13  -1.0644478037886558e-13  2.0598857618678405e-14  -3.1946845663248008e-15  3.3338374790789017e-16  2.3134191954275757e-18  -1.2107830335162041e-17  3.6087588573380193e-18  0.0000000000000000e+00  0.0000000000000000e+00  -3.2808056801182650e-10  5.0082052597107447e-10  4.6339341946505617e-10  -5.5022815630024626e-09  1.6962926096990656e-08  -1.9233665626229713e-08  -5.3990751420712437e-08  2.6120022753002903e-07  -2.3333877108353361e-07  -1.1480512753615910e-06  2.6480682540004950e-06  4.8067394471192442e-06  -1.2492436814190554e-05  -3.6881847431147914e-05  -3.3276354293381035e-05  -7.6667512749302388e-06  4.9992567302826414e-06  1.4744103327281974e-06  -1.0245099983216304e-06  -3.0123197945711668e-08  1.7099516345983845e-07  -5.4372115397191794e-08  -3.8345949793108175e-09  9.4835378494241763e-09  -3.9584084913466569e-09  7.1860494871243600e-10  1.3438425451204720e-10  -1.6448137458087390e-10  7.7664409031665597e-11  -2.6497201152147381e-11  7.3002337130705628e-12  -1.6780830652118234e-12  3.2067517468635077e-13  -4.8489523244691496e-14  4.7246624685900840e-15  1.4221021411667888e-16  -2.0123156145183993e-16  5.6709719671430277e-17  -9.6296848645319629e-18  0.0000000000000000e+00  0.0000000000000000e+00  -6.5464097914648852e-10  2.1465106242600473e-09  -4.9634616633241892e-09  5.9822926148889309e-09  1.1679196796921999e-08  -8.7461027104080904e-08  2.2284536636457239e-07  -1.0537117511321406e-07  -1.1480512753615916e-06  3.1852022819920862e-06  1.4351498055809443e-06  -1.9736708977524311e-05  1.2384107667064224e-07  1.0027302488480988e-04  1.5620795705965107e-04  8.0012932813304470e-05  -8.4440227096908791e-06  -1.5114086853561862e-05  2.7950994140534621e-06  1.9226814952688907e-06  -9.8260611084691548e-07  5.1199665714928806e-08  1.2329963037371719e-07  -6.2421987458201779e-08  1.3384785547183772e-08  1.3397354173217214e-09  -2.4303796509063020e-09  1.2077588606831344e-09  -4.1919066700274482e-10  1.1589961538515679e-10  -2.6497201152147345e-11  4.9913105288424962e-12  -7.3296262890127653e-13  6.5580673973560931e-14  3.9686749516127864e-15  -3.3676689605215001e-15  8.7988673224183352e-16  -1.5053307449124037e-16  1.2920183023909698e-17  0.0000000000000000e+00  0.0000000000000000e+00  -5.7703580027781255e-10  2.8022503640852191e-09  -1.0562983652617696e-08  3.1787228237756542e-08  -6.9085685576686576e-08  6.3619046315661032e-08  2.4775591424458690e-07  -1.3454849483133339e-06  2.6480682540004963e-06  1.4351498055809456e-06  -1.9817070343333582e-05  2.5073827986525563e-05  8.7644219122028698e-05  -1.5658210210501354e-04  -5.6516028862300092e-04  -5.1350468511219681e-04  -9.4197517547990730e-05  8.2914602670464897e-05  1.1121067797186961e-05  -1.5578416614090569e-05  2.6398643608408600e-06  1.4024741316028524e-06  -9.5846878729569113e-07  2.4409831040776810e-07  7.2988819707553547e-09  -3.5388900193561661e-08  1.8763640405452314e-08  -6.6468348549960139e-09  1.8451914691685156e-09  -4.1919066700274482e-10  7.7664409031665571e-11  -1.1019829395684144e-11  8.8317980509963357e-13  9.0890556963664005e-14  -5.6033766780773585e-14  1.3624448860991004e-14  -2.1712925663919346e-15  1.8688736253412459e-16  2.0182099791073671e-17  0.0000000000000000e+00  0.0000000000000000e+00  -1.9888775673810060e-10  1.6411991183456109e-09  -9.3633908300738830e-09  4.2844202004570002e-08  -1.5967686578019574e-07  4.6783575571139348e-07  -9.4330136880572497e-07  5.1344707923286950e-07  4.8067394471192518e-06  -1.9736708977524331e-05  2.5073827986525559e-05  6.6667851302523026e-05  -2.6620251945370032e-04  -1.3098656812864020e-04  1.4511413481684706e-03  2.4493632990173772e-03  1.1725228429371004e-03  -2.1500820107170785e-04  -1.9519057008776371e-04  6.8360658013593377e-05  1.1021866747297566e-05  -1.4066069992958998e-05  4.3629349365253822e-06  -1.3419348610771719e-07  -5.0382947254513042e-07  2.9103604827740668e-07  -1.0568987325139409e-07  2.9478093613642426e-08  -6.6468348549960214e-09  1.2077588606831365e-09  -1.6448137458087429e-10  1.1347601308556574e-11  1.8986513997949281e-12  -9.2601837026024499e-13  2.0900532851244187e-13  -3.0618360285274707e-14  2.0750539542950796e-15  3.9269086407994760e-16  -1.7195329424889059e-16  0.0000000000000000e+00  0.0000000000000000e+00  5.3826215666469923e-11  1.3274322351493658e-10  -3.0386363547618358e-09  2.4544433833896979e-08  -1.4231619591289276e-07  6.5513545639744793e-07  -2.4213721194604153e-06  6.8659486999387805e-06  -1.2492436814190552e-05  1.2384107667060717e-07  8.7644219122028834e-05  -2.6620251945370048e-04  7.9599481818212045e-05  1.5042483564794195e-03  -1.7426333527712490e-03  -8.7346685454956635e-03  -7.9991693330461171e-03  -9.7909371359386314e-04  1.3313291410386816e-03  -4.8276899537773347e-05  -1.8890499593281798e-04  7.6136019365431978e-05  -6.6911123293639314e-06  -6.9092866852836357e-06  4.5016333458436689e-06  -1.6864634847161614e-06  4.7299108135657721e-07  -1.0568987325139369e-07  1.8763640405452255e-08  -2.4303796509062925e-09  1.3438425451204596e-10  3.7596207668352551e-11  -1.5185574478873060e-11  3.1644702123519648e-12  -4.1807435180124469e-13  1.7819336193903468e-14  8.1696892306722599e-15  -2.8233244870698656e-15  4.7936084877752060e-16  0.0000000000000000e+00  0.0000000000000000e+00  5.4531581681751035e-11  -3.1815187688362556e-10  9.9840923953106717e-10  1.1324257699338383e-09  -4.2511685875019332e-08  3.6496431856348814e-07  -2.1707905335067191e-06  1.0076179128983271e-05  -3.6881847431147914e-05  1.0027302488480992e-04  -1.5658210210501344e-04  -1.3098656812864079e-04  1.5042483564794212e-03  -2.9556256038598787e-03  -4.3326407605470399e-03  2.0604464700441666e-02  3.9092365596032658e-02  1.6870960624741055e-02  -4.8689381804546839e-03  -2.0239717593211692e-03  1.2794365427745969e-03  -1.9103008637381185e-04  -8.8302808573657285e-05  6.9287424176940293e-05  -2.7032939578682413e-05  7.6327410541349491e-06  -1.6864634847161697e-06  2.9103604827740721e-07  -3.5388900193561833e-08  1.3397354173217580e-09  7.1860494871242762e-10  -2.4669042526366437e-10  4.7052403254833667e-11  -5.4322660571263980e-12  3.7866160930151489e-14  1.5834719643505790e-13  -4.4349114390965495e-14  7.0795694615021900e-15  -4.3397918630843566e-16  0.0000000000000000e+00  0.0000000000000000e+00  -5.1760503253214450e-12  -7.2316619696113853e-11  8.1329686858062506e-10  -4.8742741441080025e-09  1.7296014080095077e-08  1.7828180956155774e-09  -5.8157300715364097e-07  5.4150502373589334e-06  -3.3276354293381015e-05  1.5620795705965104e-04  -5.6516028862300114e-04  1.4511413481684706e-03  -1.7426333527712481e-03  -4.3326407605470485e-03  2.3495910477695395e-02  -1.3208539636792289e-02  -1.3678871176753338e-01  -1.2641752680008891e-01  -4.8731123852073363e-03  1.9810945925362821e-02  -4.6325943404937455e-03  -9.5646859558485620e-04  1.0565320012984761e-03  -4.3597811086372240e-04  1.2412852769679483e-04  -2.7032939578682379e-05  4.5016333458436765e-06  -5.0382947254512925e-07  7.2988819707552703e-09  1.3384785547183780e-08  -3.9584084913466520e-09  6.8156723221945258e-10  -6.4915019997836756e-11  -3.3003283643595107e-12  2.8852638226430296e-12  -6.7368360909042420e-13  9.1466319185305055e-14  -3.5136472043563340e-15  -1.9101910244266249e-15  0.0000000000000000e+00  0.0000000000000000e+00  -1.0452026720287447e-11  5.9067380783577954e-11  -1.4451910163213318e-10  -6.8930535170177929e-10  1.0836290096509366e-08  -7.3260185667923362e-08  2.9599651350249336e-07  -2.4151537917002495e-07  -7.6667512749302269e-06  8.0012932813304389e-05  -5.1350468511219660e-04  2.4493632990173768e-03  -8.7346685454956618e-03  2.0604464700441662e-02  -1.3208539636792242e-02  -1.0680945654879768e-01  2.7868176268176403e-01  6.4373883133117393e-01  2.3120336965143279e-01  -1.0318352790563665e-01  -5.1022406838266941e-03  1.5794726130078800e-02  -7.0926534311697084e-03  2.0412550962333161e-03  -4.3597811086372229e-04  6.9287424176940238e-05  -6.9092866852836620e-06  -1.3419348610771271e-07  2.4409831040776704e-07  -6.2421987458201540e-08  9.4835378494241184e-09  -6.5471616049382811e-10  -1.1280821570655079e-10  4.9834588989151833e-11  -9.7557834190802434e-12  1.0556228172030762e-12  2.0098375900771569e-14  -3.7716514907698906e-14  8.7010280483851351e-15  0.0000000000000000e+00  0.0000000000000000e+00  1.7511161496686408e-12  9.9932303184719201e-12  -1.4554063787201468e-10  9.2038080968807192e-10  -3.1304894468093223e-09  -3.4533738517801572e-09  1.3504894180004367e-07  -1.0748208394450738e-06  4.9992567302826465e-06  -8.4440227096909096e-06  -9.4197517547990568e-05  1.1725228429371004e-03  -7.9991693330461154e-03  3.9092365596032658e-02  -1.3678871176753341e-01  2.7868176268176387e-01  1.1515991089370230e-01  -2.1921654046668904e+00  -2.0484560708194883e+00  1.7884356791910361e-01  2.2434332963999390e-01  -1.1693750845856735e-01  3.4155075458485576e-02  -7.0926534311697188e-03  1.0565320012984785e-03  -8.8302808573657732e-05  -6.6911123293638637e-06  4.3629349365253619e-06  -9.5846878729568943e-07  1.2329963037371706e-07  -3.8345949793108150e-09  -2.6804213089872009e-09  8.1455210332755000e-10  -1.3159379856564693e-10  9.6617176581957394e-12  1.4716454005527651e-12  -6.7608390976024677e-13  1.3039149820887927e-13  -1.1648185255256660e-14  0.0000000000000000e+00  0.0000000000000000e+00  1.6087101112588888e-12  -1.1832247134132152e-11  4.2951213601952605e-11  2.7699355576080384e-11  -1.6687044552760384e-09  1.3412345945007831e-08  -5.9610136375024002e-08  6.3391862935960162e-08  1.4744103327281972e-06  -1.5114086853561877e-05  8.2914602670465046e-05  -2.1500820107170850e-04  -9.7909371359386054e-04  1.6870960624741041e-02  -1.2641752680008894e-01  6.4373883133117438e-01  -2.1921654046668912e+00  3.1141890673304817e+00  1.1367477727305799e+01  2.5950138396809170e+00  -1.9734120487942604e+00  5.8931233362589985e-01  -1.1693750845856687e-01  1.5794726130078745e-02  -9.5646859558484916e-04  -1.9103008637381204e-04  7.6136019365432087e-05  -1.4066069992958954e-05  1.4024741316028456e-06  5.1199665714929938e-08  -5.4372115397191920e-08  1.2430996160130527e-08  -1.5729094483662963e-09  3.2458076606139197e-11  3.8850970944704215e-11  -1.0968144387023740e-11  1.6483947544409434e-12  -9.0403417700630115e-14  -2.6717878143996668e-14  0.0000000000000000e+00  0.0000000000000000e+00  -6.2556463328850338e-13  5.4018886831503305e-13  1.7221693698221596e-11  -1.6377637690253266e-10  8.1909492636829315e-10  -1.5027008001373066e-09  -1.4705199718887742e-08  1.7703389603366658e-07  -1.0245099983216319e-06  2.7950994140534655e-06  1.1121067797186972e-05  -1.9519057008776400e-04  1.3313291410386836e-03  -4.8689381804546926e-03  -4.8731123852072920e-03  2.3120336965143273e-01  -2.0484560708194897e+00  1.1367477727305808e+01  -3.6974102908875778e+01  -3.5062842895941301e+01  1.0892207011997577e+01  -1.9734120487942697e+00  2.2434332963999468e-01  -5.1022406838268954e-03  -4.6325943404937082e-03  1.2794365427745888e-03  -1.8890499593281733e-04  1.1021866747297400e-05  2.6398643608408791e-06  -9.8260611084691760e-07  1.7099516345983858e-07  -1.4409777587822991e-08  -1.3989344905905786e-09  7.8392743899952926e-10  -1.579224402790437