<?xml version="1.0"?>
<VTKFile type="UnstructuredGrid"  version="0.1"  >
<UnstructuredGrid>
<Piece  NumberOfPoints="1681" NumberOfCells="3200">
<Points>
<DataArray  type="Float64"  NumberOfComponents="3"  format="ascii">-2 -2 0  -1.9 -2 0  -1.8 -2 0  -1.7 -2 0  -1.6 -2 0  -1.5 -2 0  -1.4 -2 0  -1.3 -2 0  -1.2 -2 0  -1.1 -2 0  -1 -2 0  -0.8999999999999999 -2 0  -0.8 -2 0  -0.7 -2 0  -0.6000000000000001 -2 0  -0.5 -2 0  -0.3999999999999999 -2 0  -0.3 -2 0  -0.2 -2 0  -0.1000000000000001 -2 0  0 -2 0  0.1000000000000001 -2 0  0.2000000000000002 -2 0  0.2999999999999998 -2 0  0.3999999999999999 -2 0  0.5 -2 0  0.6000000000000001 -2 0  0.7000000000000002 -2 0  0.7999999999999998 -2 0  0.8999999999999999 -2 0  1 -2 0  1.1 -2 0  1.2 -2 0  1.3 -2 0  1.4 -2 0  1.5 -2 0  1.6 -2 0  1.7 -2 0  1.8 -2 0  1.9 -2 0  2 -2 0  -2 -1.9 0  -1.9 -1.9 0  -1.8 -1.9 0  -1.7 -1.9 0  -1.6 -1.9 0  -1.5 -1.9 0  -1.4 -1.9 0  -1.3 -1.9 0  -1.2 -1.9 0  -1.1 -1.9 0  -1 -1.9 0  -0.8999999999999999 -1.9 0  -0.8 -1.9 0  -0.7 -1.9 0  -0.6000000000000001 -1.9 0  -0.5 -1.9 0  -0.3999999999999999 -1.9 0  -0.3 -1.9 0  -0.2 -1.9 0  -0.1000000000000001 -1.9 0  0 -1.9 0  0.1000000000000001 -1.9 0  0.2000000000000002 -1.9 0  0.2999999999999998 -1.9 0  0.3999999999999999 -1.9 0  0.5 -1.9 0  0.6000000000000001 -1.9 0  0.7000000000000002 -1.9 0  0.7999999999999998 -1.9 0  0.8999999999999999 -1.9 0  1 -1.9 0  1.1 -1.9 0  1.2 -1.9 0  1.3 -1.9 0  1.4 -1.9 0  1.5 -1.9 0  1.6 -1.9 0  1.7 -1.9 0  1.8 -1.9 0  1.9 -1.9 0  2 -1.9 0  -2 -1.8 0  -1.9 -1.8 0  -1.8 -1.8 0  -1.7 -1.8 0  -1.6 -1.8 0  -1.5 -1.8 0  -1.4 -1.8 0  -1.3 -1.8 0  -1.2 -1.8 0  -1.1 -1.8 0  -1 -1.8 0  -0.8999999999999999 -1.8 0  -0.8 -1.8 0  -0.7 -1.8 0  -0.6000000000000001 -1.8 0  -0.5 -1.8 0  -0.3999999999999999 -1.8 0  -0.3 -1.8 0  -0.2 -1.8 0  -0.1000000000000001 -1.8 0  0 -1.8 0  0.1000000000000001 -1.8 0  0.2000000000000002 -1.8 0  0.2999999999999998 -1.8 0  0.3999999999999999 -1.8 0  0.5 -1.8 0  0.6000000000000001 -1.8 0  0.7000000000000002 -1.8 0  0.7999999999999998 -1.8 0  0.8999999999999999 -1.8 0  1 -1.8 0  1.1 -1.8 0  1.2 -1.8 0  1.3 -1.8 0  1.4 -1.8 0  1.5 -1.8 0  1.6 -1.8 0  1.7 -1.8 0  1.8 -1.8 0  1.9 -1.8 0  2 -1.8 0  -2 -1.7 0  -1.9 -1.7 0  -1.8 -1.7 0  -1.7 -1.7 0  -1.6 -1.7 0  -1.5 -1.7 0  -1.4 -1.7 0  -1.3 -1.7 0  -1.2 -1.7 0  -1.1 -1.7 0  -1 -1.7 0  -0.8999999999999999 -1.7 0  -0.8 -1.7 0  -0.7 -1.7 0  -0.6000000000000001 -1.7 0  -0.5 -1.7 0  -0.3999999999999999 -1.7 0  -0.3 -1.7 0  -0.2 -1.7 0  -0.1000000000000001 -1.7 0  0 -1.7 0  0.1000000000000001 -1.7 0  0.2000000000000002 -1.7 0  0.2999999999999998 -1.7 0  0.3999999999999999 -1.7 0  0.5 -1.7 0  0.6000000000000001 -1.7 0  0.7000000000000002 -1.7 0  0.7999999999999998 -1.7 0  0.8999999999999999 -1.7 0  1 -1.7 0  1.1 -1.7 0  1.2 -1.7 0  1.3 -1.7 0  1.4 -1.7 0  1.5 -1.7 0  1.6 -1.7 0  1.7 -1.7 0  1.8 -1.7 0  1.9 -1.7 0  2 -1.7 0  -2 -1.6 0  -1.9 -1.6 0  -1.8 -1.6 0  -1.7 -1.6 0  -1.6 -1.6 0  -1.5 -1.6 0  -1.4 -1.6 0  -1.3 -1.6 0  -1.2 -1.6 0  -1.1 -1.6 0  -1 -1.6 0  -0.8999999999999999 -1.6 0  -0.8 -1.6 0  -0.7 -1.6 0  -0.6000000000000001 -1.6 0  -0.5 -1.6 0  -0.3999999999999999 -1.6 0  -0.3 -1.6 0  -0.2 -1.6 0  -0.1000000000000001 -1.6 0  0 -1.6 0  0.1000000000000001 -1.6 0  0.2000000000000002 -1.6 0  0.2999999999999998 -1.6 0  0.3999999999999999 -1.6 0  0.5 -1.6 0  0.6000000000000001 -1.6 0  0.7000000000000002 -1.6 0  0.7999999999999998 -1.6 0  0.8999999999999999 -1.6 0  1 -1.6 0  1.1 -1.6 0  1.2 -1.6 0  1.3 -1.6 0  1.4 -1.6 0  1.5 -1.6 0  1.6 -1.6 0  1.7 -1.6 0  1.8 -1.6 0  1.9 -1.6 0  2 -1.6 0  -2 -1.5 0  -1.9 -1.5 0  -1.8 -1.5 0  -1.7 -1.5 0  -1.6 -1.5 0  -1.5 -1.5 0  -1.4 -1.5 0  -1.3 -1.5 0  -1.2 -1.5 0  -1.1 -1.5 0  -1 -1.5 0  -0.8999999999999999 -1.5 0  -0.8 -1.5 0  -0.7 -1.5 0  -0.6000000000000001 -1.5 0  -0.5 -1.5 0  -0.3999999999999999 -1.5 0  -0.3 -1.5 0  -0.2 -1.5 0  -0.1000000000000001 -1.5 0  0 -1.5 0  0.1000000000000001 -1.5 0  0.2000000000000002 -1.5 0  0.2999999999999998 -1.5 0  0.3999999999999999 -1.5 0  0.5 -1.5 0  0.6000000000000001 -1.5 0  0.7000000000000002 -1.5 0  0.7999999999999998 -1.5 0  0.8999999999999999 -1.5 0  1 -1.5 0  1.1 -1.5 0  1.2 -1.5 0  1.3 -1.5 0  1.4 -1.5 0  1.5 -1.5 0  1.6 -1.5 0  1.7 -1.5 0  1.8 -1.5 0  1.9 -1.5 0  2 -1.5 0  -2 -1.4 0  -1.9 -1.4 0  -1.8 -1.4 0  -1.7 -1.4 0  -1.6 -1.4 0  -1.5 -1.4 0  -1.4 -1.4 0  -1.3 -1.4 0  -1.2 -1.4 0  -1.1 -1.4 0  -1 -1.4 0  -0.8999999999999999 -1.4 0  -0.8 -1.4 0  -0.7 -1.4 0  -0.6000000000000001 -1.4 0  -0.5 -1.4 0  -0.3999999999999999 -1.4 0  -0.3 -1.4 0  -0.2 -1.4 0  -0.1000000000000001 -1.4 0  0 -1.4 0  0.1000000000000001 -1.4 0  0.2000000000000002 -1.4 0  0.2999999999999998 -1.4 0  0.3999999999999999 -1.4 0  0.5 -1.4 0  0.6000000000000001 -1.4 0  0.7000000000000002 -1.4 0  0.7999999999999998 -1.4 0  0.8999999999999999 -1.4 0  1 -1.4 0  1.1 -1.4 0  1.2 -1.4 0  1.3 -1.4 0  1.4 -1.4 0  1.5 -1.4 0  1.6 -1.4 0  1.7 -1.4 0  1.8 -1.4 0  1.9 -1.4 0  2 -1.4 0  -2 -1.3 0  -1.9 -1.3 0  -1.8 -1.3 0  -1.7 -1.3 0  -1.6 -1.3 0  -1.5 -1.3 0  -1.4 -1.3 0  -1.3 -1.3 0  -1.2 -1.3 0  -1.1 -1.3 0  -1 -1.3 0  -0.8999999999999999 -1.3 0  -0.8 -1.3 0  -0.7 -1.3 0  -0.6000000000000001 -1.3 0  -0.5 -1.3 0  -0.3999999999999999 -1.3 0  -0.3 -1.3 0  -0.2 -1.3 0  -0.1000000000000001 -1.3 0  0 -1.3 0  0.1000000000000001 -1.3 0  0.2000000000000002 -1.3 0  0.2999999999999998 -1.3 0  0.3999999999999999 -1.3 0  0.5 -1.3 0  0.6000000000000001 -1.3 0  0.7000000000000002 -1.3 0  0.7999999999999998 -1.3 0  0.8999999999999999 -1.3 0  1 -1.3 0  1.1 -1.3 0  1.2 -1.3 0  1.3 -1.3 0  1.4 -1.3 0  1.5 -1.3 0  1.6 -1.3 0  1.7 -1.3 0  1.8 -1.3 0  1.9 -1.3 0  2 -1.3 0  -2 -1.2 0  -1.9 -1.2 0  -1.8 -1.2 0  -1.7 -1.2 0  -1.6 -1.2 0  -1.5 -1.2 0  -1.4 -1.2 0  -1.3 -1.2 0  -1.2 -1.2 0  -1.1 -1.2 0  -1 -1.2 0  -0.8999999999999999 -1.2 0  -0.8 -1.2 0  -0.7 -1.2 0  -0.6000000000000001 -1.2 0  -0.5 -1.2 0  -0.3999999999999999 -1.2 0  -0.3 -1.2 0  -0.2 -1.2 0  -0.1000000000000001 -1.2 0  0 -1.2 0  0.1000000000000001 -1.2 0  0.2000000000000002 -1.2 0  0.2999999999999998 -1.2 0  0.3999999999999999 -1.2 0  0.5 -1.2 0  0.6000000000000001 -1.2 0  0.7000000000000002 -1.2 0  0.7999999999999998 -1.2 0  0.8999999999999999 -1.2 0  1 -1.2 0  1.1 -1.2 0  1.2 -1.2 0  1.3 -1.2 0  1.4 -1.2 0  1.5 -1.2 0  1.6 -1.2 0  1.7 -1.2 0  1.8 -1.2 0  1.9 -1.2 0  2 -1.2 0  -2 -1.1 0  -1.9 -1.1 0  -1.8 -1.1 0  -1.7 -1.1 0  -1.6 -1.1 0  -1.5 -1.1 0  -1.4 -1.1 0  -1.3 -1.1 0  -1.2 -1.1 0  -1.1 -1.1 0  -1 -1.1 0  -0.8999999999999999 -1.1 0  -0.8 -1.1 0  -0.7 -1.1 0  -0.6000000000000001 -1.1 0  -0.5 -1.1 0  -0.3999999999999999 -1.1 0  -0.3 -1.1 0  -0.2 -1.1 0  -0.1000000000000001 -1.1 0  0 -1.1 0  0.1000000000000001 -1.1 0  0.2000000000000002 -1.1 0  0.2999999999999998 -1.1 0  0.3999999999999999 -1.1 0  0.5 -1.1 0  0.6000000000000001 -1.1 0  0.7000000000000002 -1.1 0  0.7999999999999998 -1.1 0  0.8999999999999999 -1.1 0  1 -1.1 0  1.1 -1.1 0  1.2 -1.1 0  1.3 -1.1 0  1.4 -1.1 0  1.5 -1.1 0  1.6 -1.1 0  1.7 -1.1 0  1.8 -1.1 0  1.9 -1.1 0  2 -1.1 0  -2 -1 0  -1.9 -1 0  -1.8 -1 0  -1.7 -1 0  -1.6 -1 0  -1.5 -1 0  -1.4 -1 0  -1.3 -1 0  -1.2 -1 0  -1.1 -1 0  -1 -1 0  -0.8999999999999999 -1 0  -0.8 -1 0  -0.7 -1 0  -0.6000000000000001 -1 0  -0.5 -1 0  -0.3999999999999999 -1 0  -0.3 -1 0  -0.2 -1 0  -0.1000000000000001 -1 0  0 -1 0  0.1000000000000001 -1 0  0.2000000000000002 -1 0  0.2999999999999998 -1 0  0.3999999999999999 -1 0  0.5 -1 0  0.6000000000000001 -1 0  0.7000000000000002 -1 0  0.7999999999999998 -1 0  0.8999999999999999 -1 0  1 -1 0  1.1 -1 0  1.2 -1 0  1.3 -1 0  1.4 -1 0  1.5 -1 0  1.6 -1 0  1.7 -1 0  1.8 -1 0  1.9 -1 0  2 -1 0  -2 -0.8999999999999999 0  -1.9 -0.8999999999999999 0  -1.8 -0.8999999999999999 0  -1.7 -0.8999999999999999 0  -1.6 -0.8999999999999999 0  -1.5 -0.8999999999999999 0  -1.4 -0.8999999999999999 0  -1.3 -0.8999999999999999 0  -1.2 -0.8999999999999999 0  -1.1 -0.8999999999999999 0  -1 -0.8999999999999999 0  -0.8999999999999999 -0.8999999999999999 0  -0.8 -0.8999999999999999 0  -0.7 -0.8999999999999999 0  -0.6000000000000001 -0.8999999999999999 0  -0.5 -0.8999999999999999 0  -0.3999999999999999 -0.8999999999999999 0  -0.3 -0.8999999999999999 0  -0.2 -0.8999999999999999 0  -0.1000000000000001 -0.8999999999999999 0  0 -0.8999999999999999 0  0.1000000000000001 -0.8999999999999999 0  0.2000000000000002 -0.8999999999999999 0  0.2999999999999998 -0.8999999999999999 0  0.3999999999999999 -0.8999999999999999 0  0.5 -0.8999999999999999 0  0.6000000000000001 -0.8999999999999999 0  0.7000000000000002 -0.8999999999999999 0  0.7999999999999998 -0.8999999999999999 0  0.8999999999999999 -0.8999999999999999 0  1 -0.8999999999999999 0  1.1 -0.8999999999999999 0  1.2 -0.8999999999999999 0  1.3 -0.8999999999999999 0  1.4 -0.8999999999999999 0  1.5 -0.8999999999999999 0  1.6 -0.8999999999999999 0  1.7 -0.8999999999999999 0  1.8 -0.8999999999999999 0  1.9 -0.8999999999999999 0  2 -0.8999999999999999 0  -2 -0.8 0  -1.9 -0.8 0  -1.8 -0.8 0  -1.7 -0.8 0  -1.6 -0.8 0  -1.5 -0.8 0  -1.4 -0.8 0  -1.3 -0.8 0  -1.2 -0.8 0  -1.1 -0.8 0  -1 -0.8 0  -0.8999999999999999 -0.8 0  -0.8 -0.8 0  -0.7 -0.8 0  -0.6000000000000001 -0.8 0  -0.5 -0.8 0  -0.3999999999999999 -0.8 0  -0.3 -0.8 0  -0.2 -0.8 0  -0.1000000000000001 -0.8 0  0 -0.8 0  0.1000000000000001 -0.8 0  0.2000000000000002 -0.8 0  0.2999999999999998 -0.8 0  0.3999999999999999 -0.8 0  0.5 -0.8 0  0.6000000000000001 -0.8 0  0.7000000000000002 -0.8 0  0.7999999999999998 -0.8 0  0.8999999999999999 -0.8 0  1 -0.8 0  1.1 -0.8 0  1.2 -0.8 0  1.3 -0.8 0  1.4 -0.8 0  1.5 -0.8 0  1.6 -0.8 0  1.7 -0.8 0  1.8 -0.8 0  1.9 -0.8 0  2 -0.8 0  -2 -0.7 0  -1.9 -0.7 0  -1.8 -0.7 0  -1.7 -0.7 0  -1.6 -0.7 0  -1.5 -0.7 0  -1.4 -0.7 0  -1.3 -0.7 0  -1.2 -0.7 0  -1.1 -0.7 0  -1 -0.7 0  -0.8999999999999999 -0.7 0  -0.8 -0.7 0  -0.7 -0.7 0  -0.6000000000000001 -0.7 0  -0.5 -0.7 0  -0.3999999999999999 -0.7 0  -0.3 -0.7 0  -0.2 -0.7 0  -0.1000000000000001 -0.7 0  0 -0.7 0  0.1000000000000001 -0.7 0  0.2000000000000002 -0.7 0  0.2999999999999998 -0.7 0  0.3999999999999999 -0.7 0  0.5 -0.7 0  0.600000000000000
[...]
<PointData  Scalars="f_1726"> 
<DataArray  type="Float64"  Name="f_1726"  format="ascii">0.0000000000000000e+00  0.0000000000000000e+00  0.0000000000000000e+00  0.0000000000000000e+00  0.0000000000000000e+00  0.0000000000000000e+00  0.0000000000000000e+00  0.0000000000000000e+00  0.0000000000000000e+00  0.0000000000000000e+00  0.0000000000000000e+00  0.0000000000000000e+00  0.0000000000000000e+00  0.0000000000000000e+00  0.0000000000000000e+00  0.0000000000000000e+00  0.0000000000000000e+00  0.0000000000000000e+00  0.0000000000000000e+00  0.0000000000000000e+00  0.0000000000000000e+00  0.0000000000000000e+00  0.0000000000000000e+00  0.0000000000000000e+00  0.0000000000000000e+00  0.0000000000000000e+00  0.0000000000000000e+00  0.0000000000000000e+00  0.0000000000000000e+00  0.0000000000000000e+00  0.0000000000000000e+00  0.0000000000000000e+00  0.0000000000000000e+00  0.0000000000000000e+00  0.0000000000000000e+00  0.0000000000000000e+00  0.0000000000000000e+00  0.0000000000000000e+00  0.0000000000000000e+00  0.0000000000000000e+00  0.0000000000000000e+00  0.0000000000000000e+00  -2.6504815486306461e-11  -3.0887631178203499e-11  2.0297141025937879e-10  -4.8910354979596918e-11  -1.0279792979386312e-09  5.5384522013258528e-10  5.0579517301514836e-09  6.9588631955943203e-10  -2.0994639228645008e-08  -4.1892000080212077e-08  -3.6925864040836576e-08  -1.2727290509812869e-08  3.4444648331626847e-09  3.4896028463791278e-09  -3.3122750874265918e-10  -6.6884951928235697e-10  1.1205799853535282e-10  1.0294510465531836e-10  -4.0031337027002199e-11  -7.3135995508355126e-12  8.7156211734991000e-12  -1.7097392143258189e-12  -7.4539448826399296e-13  5.5679903842272741e-13  -1.2223757005378990e-13  -2.7771338316380091e-14  3.0675416533838514e-14  -1.1003691559087902e-14  1.2914995440230564e-15  8.2679258634199153e-16  -6.1622594974629779e-16  2.3093287948178022e-16  -5.1069898324437685e-17  4.2283236505730530e-19  5.9878994247912622e-18  -3.6019501541568811e-18  1.4655229287962117e-18  -4.8580669724990966e-19  1.5399754782104972e-19  0.0000000000000000e+00  0.0000000000000000e+00  -3.0887631178203441e-11  2.2213147526191063e-10  -1.9760782512332783e-10  -9.7310139384470661e-10  2.0434973755533729e-09  3.8192540298992614e-09  -1.1003282415460181e-08  -2.1493720239031974e-08  3.2048671229696001e-08  1.3736021133433550e-07  1.7932252366798997e-07  1.0502415184429430e-07  8.4945478625330518e-09  -2.0359279172081980e-08  -4.6277088276081861e-09  3.7798591890011444e-09  6.3949006957800981e-10  -7.5717303633880170e-10  3.4567943094987940e-11  1.1869831785176695e-10  -4.0001894687202452e-11  -5.7851251330216854e-12  8.3440554860269926e-12  -2.4135675826445383e-12  -2.2484646341364446e-13  4.5303812913727266e-13  -1.8067110585255497e-13  2.5129202469090433e-14  1.1959357351074604e-14  -9.6329618363999393e-15  3.6289869664464873e-15  -7.7480824685480347e-16  -1.4468250350722673e-17  1.0216694009432750e-16  -5.7960127032991261e-17  2.2659122997705520e-17  -7.1652340473140619e-18  1.9464008475264126e-18  -4.8580669724991024e-19  0.0000000000000000e+00  0.0000000000000000e+00  2.0297141025937863e-10  -1.9760782512332801e-10  -8.8965862789161361e-10  2.6347749430615481e-09  1.4536076057135823e-09  -1.5630921098921647e-08  9.6989972609014324e-10  7.8083459472787926e-08  2.9653623564338442e-08  -3.1762346541336545e-07  -6.7594991165947228e-07  -5.9918517462185699e-07  -1.9444941345313117e-07  6.3890531260434076e-08  5.2044759752492986e-08  -9.2481137142664744e-09  -9.3134841961126871e-09  2.7485481370324837e-09  1.1020562671281347e-09  -7.2534462166231964e-10  2.9547039395397684e-11  1.0548461734750171e-10  -4.3264183123446844e-11  1.2861418573963858e-12  5.8531426731690730e-12  -2.8380030624510020e-12  5.2279743066625715e-13  1.3278753269175026e-13  -1.3894606549691860e-13  5.6306000131110219e-14  -1.2877276029179562e-14  1.4804107932069793e-16  1.4843645258463942e-15  -8.8022090847399371e-16  3.4946788483502465e-16  -1.1158024685444429e-16  3.0236599175490312e-17  -7.1652340473140311e-18  1.4655229287962071e-18  0.0000000000000000e+00  0.0000000000000000e+00  -4.8910354979597209e-11  -9.7310139384470495e-10  2.6347749430615481e-09  4.9447511863462612e-10  -1.6009977847946871e-08  1.8230770676283562e-08  6.9878413673000315e-08  -1.2744287989603512e-07  -3.5210380501870351e-07  3.8282082956297809e-07  2.0341387268819885e-06  2.7417002158223292e-06  1.5706554537403770e-06  7.2466560994629062e-08  -3.1191614845464145e-07  -4.4110253969175972e-08  5.8897310405999740e-08  1.7725462398151227e-09  -1.0480431584473832e-08  2.1825690037430261e-09  1.0746566322036379e-09  -7.0187709015716920e-10  9.4174014768184101e-11  6.7551761273180821e-11  -4.3110582296343600e-11  1.0133005688717253e-11  1.1403008015746370e-12  -1.9593401457987106e-12  8.7186019659451398e-13  -2.1550497579334308e-13  9.1003626276963744e-15  2.1334002054542387e-14  -1.3426292207112942e-14  5.4382494266932951e-15  -1.7516011039333982e-15  4.7641111942130119e-16  -1.1158024685444486e-16  2.2659122997705557e-17  -3.6019501541568958e-18  0.0000000000000000e+00  0.0000000000000000e+00  -1.0279792979386322e-09  2.0434973755533745e-09  1.4536076057135724e-09  -1.6009977847946868e-08  2.3811364537325194e-08  5.2675778086554972e-08  -2.0121181817287510e-07  -1.1185456374329907e-07  1.0854971259853719e-06  7.4737898900152111e-07  -4.4209538325776569e-06  -1.0218094325218125e-05  -9.1071446495320706e-06  -2.7204217346860443e-06  1.1068122013616806e-06  6.9343942718653262e-07  -2.0032730662205199e-07  -1.0678428237935193e-07  5.2415790966613906e-08  5.6429195569661533e-09  -1.0105824553578078e-08  2.4861640651549796e-09  6.1827580277639953e-10  -6.2429528977468449e-10  1.8463474811366474e-10  2.4231437799564039e-12  -2.6753550934172979e-11  1.3374737478584770e-11  -3.5857311675404454e-12  2.5396474814036179e-13  3.0234214908330564e-13  -2.0443530174847773e-13  8.4667977996496819e-14  -2.7515988955260964e-14  7.5004290623285056e-15  -1.7516011039333957e-15  3.4946788483502549e-16  -5.7960127032991162e-17  5.9878994247912545e-18  0.0000000000000000e+00  0.0000000000000000e+00  5.5384522013258931e-10  3.8192540298992605e-09  -1.5630921098921643e-08  1.8230770676283611e-08  5.2675778086554886e-08  -2.1735167854996441e-07  5.8859936622184020e-08  1.1457127788424239e-06  -1.2308070341201282e-06  -5.5968347096702453e-06  4.0711308614279599e-06  2.9937899001281755e-05  4.1923642830508366e-05  2.3354916281699749e-05  1.1408667984993906e-07  -4.6880898105070256e-06  -2.2098943128246399e-07  8.5828723728333885e-07  -9.6161322076050562e-08  -1.2100756396706934e-07  5.0165341589622717e-08  2.0770678755257476e-09  -8.4209934844819984e-09  3.1890313506691127e-09  -2.1119569429450077e-10  -3.4762334982080411e-10  2.0250181490702758e-10  -5.9258071029707754e-11  5.8162983083898074e-12  4.1966599813880784e-12  -3.1029574627369966e-12  1.3181688475094048e-12  -4.3267390327145085e-13  1.1820791420372987e-13  -2.7515988955260961e-14  5.4382494266932872e-15  -8.8022090847399598e-16  1.0216694009432746e-16  4.2283236505726621e-19  0.0000000000000000e+00  0.0000000000000000e+00  5.0579517301514886e-09  -1.1003282415460206e-08  9.6989972609018025e-10  6.9878413673000262e-08  -2.0121181817287521e-07  5.8859936622184562e-08  1.0900016216535056e-06  -2.1755349668742178e-06  -3.4549938590707728e-06  1.4260393716554309e-05  1.5854477660318818e-05  -6.0364050336712771e-05  -1.5494923821437198e-04  -1.3891393924399866e-04  -3.7216210470193876e-05  1.8941505897714681e-05  8.6420961426767306e-06  -3.8145913826839119e-06  -9.4101995968286478e-07  8.4207633402276303e-07  -8.9521074388650733e-08  -1.0065413690269832e-07  5.2125085145790963e-08  -7.2188603096444397e-09  -4.1540632340216323e-09  3.0109928093648974e-09  -9.7176025875499917e-10  1.2149912261252773e-10  5.6516731528651061e-11  -4.6903984759337598e-11  2.0520750872023454e-11  -6.8116492706940361e-12  1.8656289644565691e-12  -4.3267390327145145e-13  8.4667977996496970e-14  -1.3426292207112961e-14  1.4843645258464035e-15  -1.4468250350723616e-17  -5.1069898324437518e-17  0.0000000000000000e+00  0.0000000000000000e+00  6.9588631955942335e-10  -2.1493720239031970e-08  7.8083459472788019e-08  -1.2744287989603531e-07  -1.1185456374329893e-07  1.1457127788424239e-06  -2.1755349668742208e-06  -2.3471086872805341e-06  1.6714810562127739e-05  -6.7429467706863714e-06  -8.6100713762456819e-05  3.2856673764070752e-05  4.3936803935429298e-04  6.4479815704470691e-04  3.4652166944017639e-04  -1.5455131294643618e-05  -6.8780287404175954e-05  4.0565928681402833e-06  1.1328811093543028e-05  -3.1115757651458617e-06  -9.2211520985434299e-07  7.9548838023592762e-07  -1.7152639884764547e-07  -4.1896811109630347e-08  4.3615073691282088e-08  -1.5786294540263548e-08  2.4058688423564939e-09  7.2615942183767293e-10  -7.0518453416986623e-10  3.1940557914240105e-10  -1.0738444145997357e-10  2.9493286645988350e-11  -6.8116492706940087e-12  1.3181688475094007e-12  -2.0443530174847700e-13  2.1334002054542264e-14  1.4804107932071351e-16  -7.7480824685480278e-16  2.3093287948177978e-16  0.0000000000000000e+00  0.0000000000000000e+00  -2.0994639228645021e-08  3.2048671229696054e-08  2.9653623564338385e-08  -3.5210380501870367e-07  1.0854971259853734e-06  -1.2308070341201303e-06  -3.4549938590707711e-06  1.6714810562127756e-05  -1.4931891110288442e-05  -7.3466473458841202e-05  1.6945605155000885e-04  3.0759444599208165e-04  -7.9942011070622068e-04  -2.3601552679431044e-03  -2.1294313694583812e-03  -4.9061326017672705e-04  3.1991407506913415e-04  9.4350949214094143e-05  -6.5560779570849202e-05  -1.9276535550879787e-06  1.0942378539630791e-05  -3.4793982276364128e-06  -2.4538465861136313e-07  6.0687366205938604e-07  -2.5330777345042968e-07  4.5985203383312511e-08  8.5995612559081549e-09  -1.0525546026952101e-08  4.9699263153767818e-09  -1.6956175799418820e-09  4.6715894824097969e-10  -1.0738444145997405e-10  2.0520750872023489e-11  -3.1029574627370108e-12  3.0234214908330867e-13  9.1003626276957686e-15  -1.2877276029179508e-14  3.6289869664464691e-15  -6.1622594974629602e-16  0.0000000000000000e+00  0.0000000000000000e+00  -4.1892000080212050e-08  1.3736021133433542e-07  -3.1762346541336566e-07  3.8282082956297867e-07  7.4737898900152048e-07  -5.5968347096702503e-06  1.4260393716554322e-05  -6.7429467706864062e-06  -7.3466473458841256e-05  2.0382850830186962e-04  9.1838576694203578e-05  -1.2629979491164047e-03  7.9248787642082013e-06  6.4167042704755400e-03  9.9961107815225055e-03  5.1202138188830076e-03  -5.4035266856175220e-04  -9.6718559920775217e-04  1.7886491773000759e-04  1.2303686435737650e-04  -6.2879252270586520e-05  3.2763857878757566e-06  7.8902303553319882e-06  -3.9945282787144790e-06  8.5652358327353137e-07  8.5732787890972741e-08  -1.5552565111865668e-07  7.7287300826447319e-08  -2.6824986542392382e-08  7.4166861710089718e-09  -1.6956175799418794e-09  3.1940557914240167e-10  -4.6903984759337540e-11  4.1966599813880776e-12  2.5396474814036286e-13  -2.1550497579334298e-13  5.6306000131110402e-14  -9.6329618363999361e-15  8.2679258634199213e-16  0.0000000000000000e+00  0.0000000000000000e+00  -3.6925864040836536e-08  1.7932252366798984e-07  -6.7594991165947196e-07  2.0341387268819877e-06  -4.4209538325776595e-06  4.0711308614279658e-06  1.5854477660318821e-05  -8.6100713762456873e-05  1.6945605155000909e-04  9.1838576694203538e-05  -1.2681404599737564e-03  1.6045326178514498e-03  5.6085575933194970e-03  -1.0020053193882272e-02  -3.6165922407111549e-02  -3.2860360098379594e-02  -6.0279184138779408e-03  5.3058984273341931e-03  7.1166301513726359e-04  -9.9689914141629804e-04  1.6893106533031089e-04  8.9747584256339414e-05  -6.1334648751475439e-05  1.5620419076902351e-05  4.6707244710374644e-07  -2.2646180990383143e-06  1.2007290261527995e-06  -4.2534643437947813e-07  1.1807809721168849e-07  -2.6824986542392392e-08  4.9699263153767802e-09  -7.0518453416986891e-10  5.6516731528651326e-11  5.8162983083897468e-12  -3.5857311675404337e-12  8.7186019659451024e-13  -1.3894606549691833e-13  1.1959357351074497e-14  1.2914995440230712e-15  0.0000000000000000e+00  0.0000000000000000e+00  -1.2727290509812857e-08  1.0502415184429419e-07  -5.9918517462185657e-07  2.7417002158223284e-06  -1.0218094325218120e-05  2.9937899001281758e-05  -6.0364050336712805e-05  3.2856673764070840e-05  3.0759444599208171e-04  -1.2629979491164062e-03  1.6045326178514500e-03  4.2662309893189655e-03  -1.7034918866286924e-02  -8.3821353953520434e-03  9.2861912728303783e-02  1.5674045895000985e-01  7.5032466031094716e-02  -1.3758875266692901e-02  -1.2490698930021454e-02  4.3745576311500344e-03  7.0531490904200830e-04  -9.0012056080199850e-04  2.7919436230401705e-04  -8.5873535416585097e-06  -3.2241220724972112e-05  1.8624074181359036e-05  -6.7633410063903907e-06  1.8863718272529268e-06  -4.2534643437947872e-07  7.7287300826447451e-08  -1.0525546026952130e-08  7.2615942183768007e-10  1.2149912261252677e-10  -5.9258071029707677e-11  1.3374737478584757e-11  -1.9593401457987078e-12  1.3278753269175041e-13  2.5129202469090421e-14  -1.1003691559087900e-14  0.0000000000000000e+00  0.0000000000000000e+00  3.4444648331626888e-09  8.4945478625330038e-09  -1.9444941345313088e-07  1.5706554537403747e-06  -9.1071446495320655e-06  4.1923642830508338e-05  -1.5494923821437198e-04  4.3936803935429308e-04  -7.9942011070622122e-04  7.9248787642092720e-06  5.6085575933195022e-03  -1.7034918866286934e-02  5.0937561273065313e-03  9.6260353808669347e-02  -1.1151516461626462e-01  -5.5895177213867930e-01  -5.1188546549361746e-01  -6.2654485794466364e-02  8.5194850704115616e-02  -3.0893511768016425e-03  -1.2088470408754000e-02  4.8721211029625925e-03  -4.2817985303009566e-04  -4.4214133791545235e-04  2.8806999636814555e-04  -1.0792072401137445e-04  3.0267800289501010e-05  -6.7633410063903661e-06  1.2007290261527963e-06  -1.5552565111865602e-07  8.5995612559080639e-09  2.4058688423565088e-09  -9.7176025875499710e-10  2.0250181490702709e-10  -2.6753550934172827e-11  1.1403008015746124e-12  5.2279743066626180e-13  -1.8067110585255507e-13  3.0675416533838514e-14  0.0000000000000000e+00  0.0000000000000000e+00  3.4896028463791258e-09  -2.0359279172081976e-08  6.3890531260434116e-08  7.2466560994628559e-08  -2.7204217346860400e-06  2.3354916281699722e-05  -1.3891393924399855e-04  6.4479815704470680e-04  -2.3601552679431044e-03  6.4167042704755435e-03  -1.0020053193882284e-02  -8.3821353953520555e-03  9.6260353808669347e-02  -1.8913736227665692e-01  -2.7725576746663150e-01  1.3185276577231799e+00  2.5016114707940118e+00  1.0796120413457282e+00  -3.1157468771980623e-01  -1.2951866413003224e-01  8.1874122549462372e-02  -1.2224459892700807e-02  -5.6507022653448013e-03  4.4338635552000176e-03  -1.7299007289079600e-03  4.8843686698157125e-04  -1.0792072401137499e-04  1.8624074181359077e-05  -2.2646180990383270e-06  8.5732787890975070e-08  4.5985203383312015e-08  -1.5786294540263515e-08  3.0109928093648834e-09  -3.4762334982080266e-10  2.4231437799562076e-12  1.0133005688717253e-11  -2.8380030624510081e-12  4.5303812913727155e-13  -2.7771338316379968e-14  0.0000000000000000e+00  0.0000000000000000e+00  -3.3122750874266058e-10  -4.6277088276081761e-09  5.2044759752492940e-08  -3.1191614845464139e-07  1.1068122013616814e-06  1.1408667984992780e-07  -3.7216210470193795e-05  3.4652166944017595e-04  -2.1294313694583795e-03  9.9961107815225020e-03  -3.6165922407111556e-02  9.2861912728303866e-02  -1.1151516461626469e-01  -2.7725576746663144e-01  1.5035580035022780e+00  -8.4524519721544511e-01  -8.7534280726036453e+00  -8.0897518052631430e+00  -3.1184180479833096e-01  1.2677485442118435e+00  -2.9645049525707612e-01  -6.1206651828001529e-02  6.7609942079776636e-02  -2.7899254151620773e-02  7.9432734244813206e-03  -1.7299007289079580e-03  2.8806999636814620e-04  -3.2241220724972051e-05  4.6707244710373951e-07  8.5652358327353243e-07  -2.5330777345042963e-07  4.3615073691282220e-08  -4.1540632340216307e-09  -2.1119569429450069e-10  1.8463474811366476e-10  -4.3110582296343555e-11  5.8531426731690852e-12  -2.2484646341364350e-13  -1.2223757005378990e-13  0.0000000000000000e+00  0.0000000000000000e+00  -6.6884951928235646e-10  3.7798591890011444e-09  -9.2481137142665025e-09  -4.4110253969175813e-08  6.9343942718653167e-07  -4.6880898105070214e-06  1.8941505897714681e-05  -1.5455131294643719e-05  -4.9061326017672629e-04  5.1202138188830024e-03  -3.2860360098379580e-02  1.5674045895000985e-01  -5.5895177213867964e-01  1.3185276577231801e+00  -8.4524519721544544e-01  -6.8349857476740548e+00  1.7833494688705830e+01  4.1194346264300478e+01  1.4795241802019524e+01  -6.6029541336309139e+00  -3.2650425797481425e-01  1.0107412908536033e+00  -4.5387540281218808e-01  1.3062466508990778e-01  -2.7899254151620773e-02  4.4338635552000141e-03  -4.4214133791545393e-04  -8.5873535416582929e-06  1.5620419076902296e-05  -3.9945282787144663e-06  6.0687366205938286e-07  -4.1896811109629950e-08  -7.2188603096445092e-09  3.1890313506691243e-09  -6.2429528977468594e-10  6.7551761273180886e-11  1.2861418573963860e-12  -2.4135675826445366e-12  5.5679903842272761e-13  0.0000000000000000e+00  0.0000000000000000e+00  1.1205799853535312e-10  6.3949006957800785e-10  -9.3134841961126805e-09  5.8897310405999721e-08  -2.0032730662205215e-07  -2.2098943128246267e-07  8.6420961426767255e-06  -6.8780287404175927e-05  3.1991407506913420e-04  -5.4035266856175361e-04  -6.0279184138779269e-03  7.5032466031094661e-02  -5.1188546549361724e-01  2.5016114707940122e+00  -8.7534280726036506e+00  1.7833494688705841e+01  7.3693507587716587e+00  -1.4028176700437487e+02  -1.3108547221557060e+02  1.1444616209911905e+01  1.4356251873396159e+01  -7.4831033647068876e+00  2.1856627822352559e+00  -4.5387540281218886e-01  6.7609942079776802e-02  -5.6507022653448282e-03  -4.2817985303009187e-04  2.7919436230401597e-04  -6.1334648751475357e-05  7.8902303553319797e-06  -2.4538465861136302e-07  -1.7152639884764579e-07  5.2125085145790903e-08  -8.4209934844819951e-09  6.1827580277639808e-10  9.4174014768184450e-11  -4.3264183123447025e-11  8.3440554860269974e-12  -7.4539448826399448e-13  0.0000000000000000e+00  0.0000000000000000e+00  1.0294510465531830e-10  -7.5717303633880181e-10  2.7485481370324858e-09  1.7725462398150968e-09  -1.0678428237935183e-07  8.5828723728333927e-07  -3.8145913826839153e-06  4.0565928681403104e-06  9.4350949214093980e-05  -9.6718559920775152e-04  5.3058984273341948e-03  -1.3758875266692925e-02  -6.2654485794466225e-02  1.0796120413457273e+00  -8.0897518052631430e+00  4.1194346264300492e+01  -1.4028176700437484e+02  1.9928420739638918e+02  7.2743136014029380e+02  1.6606097608157600e+02  -1.2628323056427791e+02  3.7711467986182790e+01  -7.4831033647068592e+00  1.0107412908535998e+00  -6.1206651828001057e-02  -1.2224459892700830e-02  4.8721211029626029e-03  -9.0012056080199601e-04  8.9747584256339021e-05  3.2763857878758362e-06  -3.4793982276364200e-06  7.9548838023593079e-07  -1.0065413690269844e-07  2.0770678755257848e-09  2.4861640651549717e-09  -7.0187709015716692e-10  1.0548461734750167e-10  -5.7851251330216393e-12  -1.7097392143258226e-12  0.0000000000000000e+00  0.0000000000000000e+00  -4.0031337027002218e-11  3.4567943094988030e-11  1.1020562671281347e-09  -1.0480431584473837e-08  5.2415790966613965e-08  -9.6161322076050813e-08  -9.4101995968286446e-07  1.1328811093543030e-05  -6.5560779570849215e-05  1.7886491773000786e-04  7.1166301513726261e-04  -1.2490698930021455e-02  8.5194850704115643e-02  -3.1157468771980651e-01  -3.1184180479832868e-01  1.4795241802019529e+01  -1.3108547221557060e+02  7.2743136014029369e+02  -2.3660589107083583e+03  -2.2437529335916402e+03  6.9701768076786402e+02  -1.2628323056427845e+02  1.4356251873396200e+01  -3.2650425797482596e-01  -2.9645049525707384e-01  8.1874122549461886e-02  -1.2088470408753962e-02  7.0531490904199746e-04  1.6893106533031230e-04  -6.2879252270586696e-05  1.0942378539630803e-05  -9.2211520985434669e-07  -8.9521074388650535e-08  5.0165341589622764e-08  -1.010582455357809