<?xml version="1.0"?>
<VTKFile type="UnstructuredGrid"  version="0.1"  >
<UnstructuredGrid>
<Piece  NumberOfPoints="1681" NumberOfCells="3200">
<Points>
<DataArray  type="Float64"  NumberOfComponents="3"  format="ascii">-2 -2 0  -1.9 -2 0  -1.8 -2 0  -1.7 -2 0  -1.6 -2 0  -1.5 -2 0  -1.4 -2 0  -1.3 -2 0  -1.2 -2 0  -1.1 -2 0  -1 -2 0  -0.8999999999999999 -2 0  -0.8 -2 0  -0.7 -2 0  -0.6000000000000001 -2 0  -0.5 -2 0  -0.3999999999999999 -2 0  -0.3 -2 0  -0.2 -2 0  -0.1000000000000001 -2 0  0 -2 0  0.1000000000000001 -2 0  0.2000000000000002 -2 0  0.2999999999999998 -2 0  0.3999999999999999 -2 0  0.5 -2 0  0.6000000000000001 -2 0  0.7000000000000002 -2 0  0.7999999999999998 -2 0  0.8999999999999999 -2 0  1 -2 0  1.1 -2 0  1.2 -2 0  1.3 -2 0  1.4 -2 0  1.5 -2 0  1.6 -2 0  1.7 -2 0  1.8 -2 0  1.9 -2 0  2 -2 0  -2 -1.9 0  -1.9 -1.9 0  -1.8 -1.9 0  -1.7 -1.9 0  -1.6 -1.9 0  -1.5 -1.9 0  -1.4 -1.9 0  -1.3 -1.9 0  -1.2 -1.9 0  -1.1 -1.9 0  -1 -1.9 0  -0.8999999999999999 -1.9 0  -0.8 -1.9 0  -0.7 -1.9 0  -0.6000000000000001 -1.9 0  -0.5 -1.9 0  -0.3999999999999999 -1.9 0  -0.3 -1.9 0  -0.2 -1.9 0  -0.1000000000000001 -1.9 0  0 -1.9 0  0.1000000000000001 -1.9 0  0.2000000000000002 -1.9 0  0.2999999999999998 -1.9 0  0.3999999999999999 -1.9 0  0.5 -1.9 0  0.6000000000000001 -1.9 0  0.7000000000000002 -1.9 0  0.7999999999999998 -1.9 0  0.8999999999999999 -1.9 0  1 -1.9 0  1.1 -1.9 0  1.2 -1.9 0  1.3 -1.9 0  1.4 -1.9 0  1.5 -1.9 0  1.6 -1.9 0  1.7 -1.9 0  1.8 -1.9 0  1.9 -1.9 0  2 -1.9 0  -2 -1.8 0  -1.9 -1.8 0  -1.8 -1.8 0  -1.7 -1.8 0  -1.6 -1.8 0  -1.5 -1.8 0  -1.4 -1.8 0  -1.3 -1.8 0  -1.2 -1.8 0  -1.1 -1.8 0  -1 -1.8 0  -0.8999999999999999 -1.8 0  -0.8 -1.8 0  -0.7 -1.8 0  -0.6000000000000001 -1.8 0  -0.5 -1.8 0  -0.3999999999999999 -1.8 0  -0.3 -1.8 0  -0.2 -1.8 0  -0.1000000000000001 -1.8 0  0 -1.8 0  0.1000000000000001 -1.8 0  0.2000000000000002 -1.8 0  0.2999999999999998 -1.8 0  0.3999999999999999 -1.8 0  0.5 -1.8 0  0.6000000000000001 -1.8 0  0.7000000000000002 -1.8 0  0.7999999999999998 -1.8 0  0.8999999999999999 -1.8 0  1 -1.8 0  1.1 -1.8 0  1.2 -1.8 0  1.3 -1.8 0  1.4 -1.8 0  1.5 -1.8 0  1.6 -1.8 0  1.7 -1.8 0  1.8 -1.8 0  1.9 -1.8 0  2 -1.8 0  -2 -1.7 0  -1.9 -1.7 0  -1.8 -1.7 0  -1.7 -1.7 0  -1.6 -1.7 0  -1.5 -1.7 0  -1.4 -1.7 0  -1.3 -1.7 0  -1.2 -1.7 0  -1.1 -1.7 0  -1 -1.7 0  -0.8999999999999999 -1.7 0  -0.8 -1.7 0  -0.7 -1.7 0  -0.6000000000000001 -1.7 0  -0.5 -1.7 0  -0.3999999999999999 -1.7 0  -0.3 -1.7 0  -0.2 -1.7 0  -0.1000000000000001 -1.7 0  0 -1.7 0  0.1000000000000001 -1.7 0  0.2000000000000002 -1.7 0  0.2999999999999998 -1.7 0  0.3999999999999999 -1.7 0  0.5 -1.7 0  0.6000000000000001 -1.7 0  0.7000000000000002 -1.7 0  0.7999999999999998 -1.7 0  0.8999999999999999 -1.7 0  1 -1.7 0  1.1 -1.7 0  1.2 -1.7 0  1.3 -1.7 0  1.4 -1.7 0  1.5 -1.7 0  1.6 -1.7 0  1.7 -1.7 0  1.8 -1.7 0  1.9 -1.7 0  2 -1.7 0  -2 -1.6 0  -1.9 -1.6 0  -1.8 -1.6 0  -1.7 -1.6 0  -1.6 -1.6 0  -1.5 -1.6 0  -1.4 -1.6 0  -1.3 -1.6 0  -1.2 -1.6 0  -1.1 -1.6 0  -1 -1.6 0  -0.8999999999999999 -1.6 0  -0.8 -1.6 0  -0.7 -1.6 0  -0.6000000000000001 -1.6 0  -0.5 -1.6 0  -0.3999999999999999 -1.6 0  -0.3 -1.6 0  -0.2 -1.6 0  -0.1000000000000001 -1.6 0  0 -1.6 0  0.1000000000000001 -1.6 0  0.2000000000000002 -1.6 0  0.2999999999999998 -1.6 0  0.3999999999999999 -1.6 0  0.5 -1.6 0  0.6000000000000001 -1.6 0  0.7000000000000002 -1.6 0  0.7999999999999998 -1.6 0  0.8999999999999999 -1.6 0  1 -1.6 0  1.1 -1.6 0  1.2 -1.6 0  1.3 -1.6 0  1.4 -1.6 0  1.5 -1.6 0  1.6 -1.6 0  1.7 -1.6 0  1.8 -1.6 0  1.9 -1.6 0  2 -1.6 0  -2 -1.5 0  -1.9 -1.5 0  -1.8 -1.5 0  -1.7 -1.5 0  -1.6 -1.5 0  -1.5 -1.5 0  -1.4 -1.5 0  -1.3 -1.5 0  -1.2 -1.5 0  -1.1 -1.5 0  -1 -1.5 0  -0.8999999999999999 -1.5 0  -0.8 -1.5 0  -0.7 -1.5 0  -0.6000000000000001 -1.5 0  -0.5 -1.5 0  -0.3999999999999999 -1.5 0  -0.3 -1.5 0  -0.2 -1.5 0  -0.1000000000000001 -1.5 0  0 -1.5 0  0.1000000000000001 -1.5 0  0.2000000000000002 -1.5 0  0.2999999999999998 -1.5 0  0.3999999999999999 -1.5 0  0.5 -1.5 0  0.6000000000000001 -1.5 0  0.7000000000000002 -1.5 0  0.7999999999999998 -1.5 0  0.8999999999999999 -1.5 0  1 -1.5 0  1.1 -1.5 0  1.2 -1.5 0  1.3 -1.5 0  1.4 -1.5 0  1.5 -1.5 0  1.6 -1.5 0  1.7 -1.5 0  1.8 -1.5 0  1.9 -1.5 0  2 -1.5 0  -2 -1.4 0  -1.9 -1.4 0  -1.8 -1.4 0  -1.7 -1.4 0  -1.6 -1.4 0  -1.5 -1.4 0  -1.4 -1.4 0  -1.3 -1.4 0  -1.2 -1.4 0  -1.1 -1.4 0  -1 -1.4 0  -0.8999999999999999 -1.4 0  -0.8 -1.4 0  -0.7 -1.4 0  -0.6000000000000001 -1.4 0  -0.5 -1.4 0  -0.3999999999999999 -1.4 0  -0.3 -1.4 0  -0.2 -1.4 0  -0.1000000000000001 -1.4 0  0 -1.4 0  0.1000000000000001 -1.4 0  0.2000000000000002 -1.4 0  0.2999999999999998 -1.4 0  0.3999999999999999 -1.4 0  0.5 -1.4 0  0.6000000000000001 -1.4 0  0.7000000000000002 -1.4 0  0.7999999999999998 -1.4 0  0.8999999999999999 -1.4 0  1 -1.4 0  1.1 -1.4 0  1.2 -1.4 0  1.3 -1.4 0  1.4 -1.4 0  1.5 -1.4 0  1.6 -1.4 0  1.7 -1.4 0  1.8 -1.4 0  1.9 -1.4 0  2 -1.4 0  -2 -1.3 0  -1.9 -1.3 0  -1.8 -1.3 0  -1.7 -1.3 0  -1.6 -1.3 0  -1.5 -1.3 0  -1.4 -1.3 0  -1.3 -1.3 0  -1.2 -1.3 0  -1.1 -1.3 0  -1 -1.3 0  -0.8999999999999999 -1.3 0  -0.8 -1.3 0  -0.7 -1.3 0  -0.6000000000000001 -1.3 0  -0.5 -1.3 0  -0.3999999999999999 -1.3 0  -0.3 -1.3 0  -0.2 -1.3 0  -0.1000000000000001 -1.3 0  0 -1.3 0  0.1000000000000001 -1.3 0  0.2000000000000002 -1.3 0  0.2999999999999998 -1.3 0  0.3999999999999999 -1.3 0  0.5 -1.3 0  0.6000000000000001 -1.3 0  0.7000000000000002 -1.3 0  0.7999999999999998 -1.3 0  0.8999999999999999 -1.3 0  1 -1.3 0  1.1 -1.3 0  1.2 -1.3 0  1.3 -1.3 0  1.4 -1.3 0  1.5 -1.3 0  1.6 -1.3 0  1.7 -1.3 0  1.8 -1.3 0  1.9 -1.3 0  2 -1.3 0  -2 -1.2 0  -1.9 -1.2 0  -1.8 -1.2 0  -1.7 -1.2 0  -1.6 -1.2 0  -1.5 -1.2 0  -1.4 -1.2 0  -1.3 -1.2 0  -1.2 -1.2 0  -1.1 -1.2 0  -1 -1.2 0  -0.8999999999999999 -1.2 0  -0.8 -1.2 0  -0.7 -1.2 0  -0.6000000000000001 -1.2 0  -0.5 -1.2 0  -0.3999999999999999 -1.2 0  -0.3 -1.2 0  -0.2 -1.2 0  -0.1000000000000001 -1.2 0  0 -1.2 0  0.1000000000000001 -1.2 0  0.2000000000000002 -1.2 0  0.2999999999999998 -1.2 0  0.3999999999999999 -1.2 0  0.5 -1.2 0  0.6000000000000001 -1.2 0  0.7000000000000002 -1.2 0  0.7999999999999998 -1.2 0  0.8999999999999999 -1.2 0  1 -1.2 0  1.1 -1.2 0  1.2 -1.2 0  1.3 -1.2 0  1.4 -1.2 0  1.5 -1.2 0  1.6 -1.2 0  1.7 -1.2 0  1.8 -1.2 0  1.9 -1.2 0  2 -1.2 0  -2 -1.1 0  -1.9 -1.1 0  -1.8 -1.1 0  -1.7 -1.1 0  -1.6 -1.1 0  -1.5 -1.1 0  -1.4 -1.1 0  -1.3 -1.1 0  -1.2 -1.1 0  -1.1 -1.1 0  -1 -1.1 0  -0.8999999999999999 -1.1 0  -0.8 -1.1 0  -0.7 -1.1 0  -0.6000000000000001 -1.1 0  -0.5 -1.1 0  -0.3999999999999999 -1.1 0  -0.3 -1.1 0  -0.2 -1.1 0  -0.1000000000000001 -1.1 0  0 -1.1 0  0.1000000000000001 -1.1 0  0.2000000000000002 -1.1 0  0.2999999999999998 -1.1 0  0.3999999999999999 -1.1 0  0.5 -1.1 0  0.6000000000000001 -1.1 0  0.7000000000000002 -1.1 0  0.7999999999999998 -1.1 0  0.8999999999999999 -1.1 0  1 -1.1 0  1.1 -1.1 0  1.2 -1.1 0  1.3 -1.1 0  1.4 -1.1 0  1.5 -1.1 0  1.6 -1.1 0  1.7 -1.1 0  1.8 -1.1 0  1.9 -1.1 0  2 -1.1 0  -2 -1 0  -1.9 -1 0  -1.8 -1 0  -1.7 -1 0  -1.6 -1 0  -1.5 -1 0  -1.4 -1 0  -1.3 -1 0  -1.2 -1 0  -1.1 -1 0  -1 -1 0  -0.8999999999999999 -1 0  -0.8 -1 0  -0.7 -1 0  -0.6000000000000001 -1 0  -0.5 -1 0  -0.3999999999999999 -1 0  -0.3 -1 0  -0.2 -1 0  -0.1000000000000001 -1 0  0 -1 0  0.1000000000000001 -1 0  0.2000000000000002 -1 0  0.2999999999999998 -1 0  0.3999999999999999 -1 0  0.5 -1 0  0.6000000000000001 -1 0  0.7000000000000002 -1 0  0.7999999999999998 -1 0  0.8999999999999999 -1 0  1 -1 0  1.1 -1 0  1.2 -1 0  1.3 -1 0  1.4 -1 0  1.5 -1 0  1.6 -1 0  1.7 -1 0  1.8 -1 0  1.9 -1 0  2 -1 0  -2 -0.8999999999999999 0  -1.9 -0.8999999999999999 0  -1.8 -0.8999999999999999 0  -1.7 -0.8999999999999999 0  -1.6 -0.8999999999999999 0  -1.5 -0.8999999999999999 0  -1.4 -0.8999999999999999 0  -1.3 -0.8999999999999999 0  -1.2 -0.8999999999999999 0  -1.1 -0.8999999999999999 0  -1 -0.8999999999999999 0  -0.8999999999999999 -0.8999999999999999 0  -0.8 -0.8999999999999999 0  -0.7 -0.8999999999999999 0  -0.6000000000000001 -0.8999999999999999 0  -0.5 -0.8999999999999999 0  -0.3999999999999999 -0.8999999999999999 0  -0.3 -0.8999999999999999 0  -0.2 -0.8999999999999999 0  -0.1000000000000001 -0.8999999999999999 0  0 -0.8999999999999999 0  0.1000000000000001 -0.8999999999999999 0  0.2000000000000002 -0.8999999999999999 0  0.2999999999999998 -0.8999999999999999 0  0.3999999999999999 -0.8999999999999999 0  0.5 -0.8999999999999999 0  0.6000000000000001 -0.8999999999999999 0  0.7000000000000002 -0.8999999999999999 0  0.7999999999999998 -0.8999999999999999 0  0.8999999999999999 -0.8999999999999999 0  1 -0.8999999999999999 0  1.1 -0.8999999999999999 0  1.2 -0.8999999999999999 0  1.3 -0.8999999999999999 0  1.4 -0.8999999999999999 0  1.5 -0.8999999999999999 0  1.6 -0.8999999999999999 0  1.7 -0.8999999999999999 0  1.8 -0.8999999999999999 0  1.9 -0.8999999999999999 0  2 -0.8999999999999999 0  -2 -0.8 0  -1.9 -0.8 0  -1.8 -0.8 0  -1.7 -0.8 0  -1.6 -0.8 0  -1.5 -0.8 0  -1.4 -0.8 0  -1.3 -0.8 0  -1.2 -0.8 0  -1.1 -0.8 0  -1 -0.8 0  -0.8999999999999999 -0.8 0  -0.8 -0.8 0  -0.7 -0.8 0  -0.6000000000000001 -0.8 0  -0.5 -0.8 0  -0.3999999999999999 -0.8 0  -0.3 -0.8 0  -0.2 -0.8 0  -0.1000000000000001 -0.8 0  0 -0.8 0  0.1000000000000001 -0.8 0  0.2000000000000002 -0.8 0  0.2999999999999998 -0.8 0  0.3999999999999999 -0.8 0  0.5 -0.8 0  0.6000000000000001 -0.8 0  0.7000000000000002 -0.8 0  0.7999999999999998 -0.8 0  0.8999999999999999 -0.8 0  1 -0.8 0  1.1 -0.8 0  1.2 -0.8 0  1.3 -0.8 0  1.4 -0.8 0  1.5 -0.8 0  1.6 -0.8 0  1.7 -0.8 0  1.8 -0.8 0  1.9 -0.8 0  2 -0.8 0  -2 -0.7 0  -1.9 -0.7 0  -1.8 -0.7 0  -1.7 -0.7 0  -1.6 -0.7 0  -1.5 -0.7 0  -1.4 -0.7 0  -1.3 -0.7 0  -1.2 -0.7 0  -1.1 -0.7 0  -1 -0.7 0  -0.8999999999999999 -0.7 0  -0.8 -0.7 0  -0.7 -0.7 0  -0.6000000000000001 -0.7 0  -0.5 -0.7 0  -0.3999999999999999 -0.7 0  -0.3 -0.7 0  -0.2 -0.7 0  -0.1000000000000001 -0.7 0  0 -0.7 0  0.1000000000000001 -0.7 0  0.2000000000000002 -0.7 0  0.2999999999999998 -0.7 0  0.3999999999999999 -0.7 0  0.5 -0.7 0  0.600000000000000
[...]
<PointData  Scalars="f_1726"> 
<DataArray  type="Float64"  Name="f_1726"  format="ascii">0.0000000000000000e+00  0.0000000000000000e+00  0.0000000000000000e+00  0.0000000000000000e+00  0.0000000000000000e+00  0.0000000000000000e+00  0.0000000000000000e+00  0.0000000000000000e+00  0.0000000000000000e+00  0.0000000000000000e+00  0.0000000000000000e+00  0.0000000000000000e+00  0.0000000000000000e+00  0.0000000000000000e+00  0.0000000000000000e+00  0.0000000000000000e+00  0.0000000000000000e+00  0.0000000000000000e+00  0.0000000000000000e+00  0.0000000000000000e+00  0.0000000000000000e+00  0.0000000000000000e+00  0.0000000000000000e+00  0.0000000000000000e+00  0.0000000000000000e+00  0.0000000000000000e+00  0.0000000000000000e+00  0.0000000000000000e+00  0.0000000000000000e+00  0.0000000000000000e+00  0.0000000000000000e+00  0.0000000000000000e+00  0.0000000000000000e+00  0.0000000000000000e+00  0.0000000000000000e+00  0.0000000000000000e+00  0.0000000000000000e+00  0.0000000000000000e+00  0.0000000000000000e+00  0.0000000000000000e+00  0.0000000000000000e+00  0.0000000000000000e+00  -1.2990875170979786e-12  -1.5139036194030873e-12  9.9482913032146397e-12  -2.3972561379894429e-12  -5.0384620654203875e-11  2.7145761955986677e-11  2.4790672314314498e-10  3.4107659852450610e-11  -1.0290157938280737e-09  -2.0532636568848206e-09  -1.8098571204274658e-09  -6.2380604899210040e-10  1.6882446399811437e-10  1.7103682535359653e-10  -1.6234541310025658e-11  -3.2782498024391136e-11  5.4923282587448994e-12  5.0456755857501518e-12  -1.9620664875553742e-12  -3.5846338513288066e-13  4.2718104097337082e-13  -8.3799899379457664e-14  -3.6534216792328632e-14  2.7290538231470691e-14  -5.9912622843690326e-15  -1.3611639348537759e-15  1.5035022870270052e-15  -5.3932683869437910e-16  6.3300608028940804e-17  4.0523803257598529e-17  -3.0203245121281865e-17  1.1318774174348306e-17  -2.5031024059388874e-18  2.0724394310715418e-20  2.9348649495045013e-19  -1.7654333360259934e-19  7.1830062118471843e-20  -2.3810971875884620e-20  7.5479224573882586e-21  0.0000000000000000e+00  0.0000000000000000e+00  -1.5139036194030889e-12  1.0887388626281637e-11  -9.6854044892794477e-12  -4.7694875456401907e-11  1.0015847622766480e-10  1.8719410581943591e-10  -5.3930678522976453e-10  -1.0534773831173603e-09  1.5708099818912219e-09  6.7324722929147310e-09  8.7891821828357015e-09  5.1475764743660978e-09  4.1634551643301446e-10  -9.9787472367913654e-10  -2.2681911420269535e-10  1.8526323608464210e-10  3.1343495566913629e-11  -3.7111521877943240e-11  1.6942877187601071e-12  5.8177919820428410e-12  -1.9606234223837741e-12  -2.8354786506780431e-13  4.0896939386244030e-13  -1.1829682496396801e-13  -1.1020459057155160e-14  2.2204877398060600e-14  -8.8552805973918891e-15  1.2316642332065632e-15  5.8616713839497043e-16  -4.7214290100656205e-16  1.7786849601943247e-16  -3.7975881105592637e-17  -7.0913617318267319e-19  5.0075352007339438e-18  -2.8408150042347154e-18  1.1105975761240433e-18  -3.5119150754926690e-19  9.5399458471870655e-20  -2.3810971875884647e-20  0.0000000000000000e+00  0.0000000000000000e+00  9.9482913032146494e-12  -9.6854044892794477e-12  -4.3605073144901426e-11  1.2913891970544608e-10  7.1246053243298093e-11  -7.6612246143888257e-10  4.7537951269701998e-11  3.8271252084486908e-09  1.4534208785213761e-09  -1.5567762743682653e-08  -3.3130511430044702e-08  -2.9368021112374050e-08  -9.5306004244584944e-09  3.1314834719022714e-09  2.5508835464165945e-09  -4.5328023841981474e-10  -4.5648425910039524e-10  1.3471531529078285e-10  5.4015374696926992e-11  -3.5551507388629097e-11  1.4481968405173037e-12  5.1701453916098383e-12  -2.1205188265561861e-12  6.3038010320202763e-14  2.8688162671556271e-13  -1.3909979316100882e-13  2.5624008456135588e-14  6.5083503876952041e-15  -6.8102001815549640e-15  2.7597408458034004e-15  -6.3115732883992242e-16  7.2559764946332919e-18  7.2753550287734095e-17  -4.3142499712098763e-17  1.7128561677796438e-17  -5.4689120895109913e-18  1.4819944160210522e-18  -3.5119150754926536e-19  7.1830062118471614e-20  0.0000000000000000e+00  0.0000000000000000e+00  -2.3972561379894264e-12  -4.7694875456401978e-11  1.2913891970544616e-10  2.4235839501152215e-11  -7.8470126992690294e-10  8.9354957497711124e-10  3.4249691330280444e-09  -6.2463915095538551e-09  -1.7257756729482535e-08  1.8763298360907044e-08  9.9699778310217229e-08  1.3437967632107287e-07  7.6982950312185864e-08  3.5518226808173510e-09  -1.5288028511198346e-08  -2.1619875202294223e-09  2.8867494202556853e-09  8.6878276697020242e-11  -5.1368015944964574e-10  1.0697483064661956e-10  5.2672429158526771e-11  -3.4401287072958731e-11  4.6157758420749930e-12  3.3109323048602326e-12  -2.1129903486760506e-12  4.9665168232151279e-13  5.5889864157996522e-14  -9.6033655713282692e-14  4.2732713934027754e-14  -1.0562602258833817e-14  4.4603847541640725e-16  1.0456490735850347e-15  -6.5806640367602419e-16  2.6654635451933105e-16  -8.5851687223800134e-17  2.3350463939906966e-17  -5.4689120895110182e-18  1.1105975761240450e-18  -1.7654333360260006e-19  0.0000000000000000e+00  0.0000000000000000e+00  -5.0384620654203972e-11  1.0015847622766485e-10  7.1246053243298403e-11  -7.8470126992690377e-10  1.1670726948274755e-09  2.5818118145746312e-09  -9.8620479518529992e-09  -5.4823572555874773e-09  5.3203757141485336e-08  3.6631483650765187e-08  -2.1668537706045499e-07  -5.0082215412058196e-07  -4.4637088444268369e-07  -1.3333674850890855e-07  5.4248478556794571e-08  3.3987729670746395e-08  -9.8186951537549563e-09  -5.2338462168488441e-09  2.5690689972440945e-09  2.7657790563492633e-10  -4.9531944617076126e-10  1.2185501552233114e-10  3.0303715108883445e-11  -3.0598749813910714e-11  9.0495516416974041e-12  1.1876618565035049e-13  -1.3112788532553689e-12  6.5553953815934402e-13  -1.7574838813073692e-13  1.2447641231931190e-14  1.4818775553054499e-14  -1.0020041403148637e-14  4.1498539527657340e-15  -1.3486484292204611e-15  3.6762050929137325e-16  -8.5851687223799986e-17  1.7128561677796478e-17  -2.8408150042347104e-18  2.9348649495044984e-19  0.0000000000000000e+00  0.0000000000000000e+00  2.7145761955986806e-11  1.8719410581943612e-10  -7.6612246143888319e-10  8.9354957497711114e-10  2.5818118145746341e-09  -1.0653115188461896e-08  2.8849176091251476e-09  5.6155122828257047e-08  -6.0325870021918101e-08  -2.7431913685079989e-07  1.9953941144339618e-07  1.4673541455437953e-06  2.0548145713568641e-06  1.1447006759997810e-06  5.5917605514660249e-09  -2.2977858325444230e-07  -1.0831413323286581e-08  4.2067458896869093e-08  -4.7131802596843388e-09  -5.9309756713934127e-09  2.4587671279471520e-09  1.0180387600339155e-10  -4.1274037628769184e-10  1.5630483530167246e-10  -1.0351390307341476e-11  -1.7038154996298804e-11  9.9252749022651010e-12  -2.9044314759244672e-12  2.8507576413995373e-13  2.0569200333209401e-13  -1.5208607311415704e-13  6.4607757639799675e-14  -2.1206760220775565e-14  5.7937556986047083e-15  -1.3486484292204613e-15  2.6654635451933071e-16  -4.3142499712098886e-17  5.0075352007339454e-18  2.0724394310712752e-20  0.0000000000000000e+00  0.0000000000000000e+00  2.4790672314314498e-10  -5.3930678522976557e-10  4.7537951269702844e-11  3.4249691330280457e-09  -9.8620479518530008e-09  2.8849176091251261e-09  5.3424537176581890e-08  -1.0663006954100882e-07  -1.6934052592397316e-07  6.9894844111060594e-07  7.7707969818804818e-07  -2.9586391316103225e-06  -7.5945679098248505e-06  -6.8086255690412109e-06  -1.8240879466034459e-06  9.2838502797620788e-07  4.2357733923151477e-07  -1.8696557426081333e-07  -4.6122459656270154e-08  4.1272909616660853e-08  -4.3877200471581857e-09  -4.9333877786141111e-09  2.5548205561193521e-09  -3.5381990569895435e-10  -2.0360419771045833e-10  1.4757858528532618e-10  -4.7629142048271673e-11  5.9550685650250092e-12  2.7700694794114069e-12  -2.2989173848235091e-12  1.0057889787271273e-12  -3.3386116356780204e-13  9.1440564848078332e-14  -2.1206760220775600e-14  4.1498539527657419e-15  -6.5806640367602508e-16  7.2753550287734514e-17  -7.0913617318271922e-19  -2.5031024059388789e-18  0.0000000000000000e+00  0.0000000000000000e+00  3.4107659852451153e-11  -1.0534773831173601e-09  3.8271252084486965e-09  -6.2463915095538633e-09  -5.4823572555874847e-09  5.6155122828257080e-08  -1.0663006954100873e-07  -1.1503945758436463e-07  8.1924742178024207e-07  -3.3049382980162506e-07  -4.2200770090182853e-06  1.6104128233723128e-06  2.1534861679450812e-05  3.1603662258932788e-05  1.6984158045026131e-05  -7.5750642936392694e-07  -3.3711463803752643e-06  1.9882685694123589e-07  5.5526200824851432e-07  -1.5250848424483322e-07  -4.5195876163214650e-08  3.8989481941305627e-08  -8.4070686593108972e-09  -2.0534994611395175e-09  2.1377171185713742e-09  -7.7373782092856138e-10  1.1791948457422855e-10  3.5591443404681612e-11  -3.4563395699318164e-11  1.5655109954254067e-11  -5.2632619722730382e-12  1.4455622428230389e-12  -3.3386116356780062e-13  6.4607757639799461e-14  -1.0020041403148601e-14  1.0456490735850286e-15  7.2559764946339775e-18  -3.7975881105592570e-17  1.1318774174348277e-17  0.0000000000000000e+00  0.0000000000000000e+00  -1.0290157938280755e-09  1.5708099818912202e-09  1.4534208785213751e-09  -1.7257756729482545e-08  5.3203757141485409e-08  -6.0325870021918167e-08  -1.6934052592397340e-07  8.1924742178024217e-07  -7.3186072010438194e-07  -3.6008316543421574e-06  8.3055941807654241e-06  1.5076207767732910e-05  -3.9182188884585062e-05  -1.1567891308588723e-04  -1.0437038175230596e-04  -2.4046557213258539e-05  1.5680032999323186e-05  4.6244479767723768e-06  -3.2133477931851456e-06  -9.4480592479435047e-08  5.3632168748880033e-07  -1.7053666368175782e-07  -1.2027103039221861e-08  2.9744858976445153e-08  -1.2415440758051954e-08  2.2538849107377010e-09  4.2149256559968931e-10  -5.1589136552631625e-10  2.4359231025540885e-10  -8.3107751986140840e-11  2.2896984831832467e-11  -5.2632619722730608e-12  1.0057889787271291e-12  -1.5208607311415780e-13  1.4818775553054647e-14  4.4603847541637619e-16  -6.3115732883991927e-16  1.7786849601943151e-16  -3.0203245121281772e-17  0.0000000000000000e+00  0.0000000000000000e+00  -2.0532636568848190e-09  6.7324722929147277e-09  -1.5567762743682640e-08  1.8763298360907054e-08  3.6631483650765200e-08  -2.7431913685080026e-07  6.9894844111060689e-07  -3.3049382980162479e-07  -3.6008316543421587e-06  9.9903004757932836e-06  4.5013083993406310e-06  -6.1903651835084437e-05  3.8842417455875183e-07  3.1450362003050838e-04  4.8994201610320389e-04  2.5095839133156738e-04  -2.6484447964628061e-05  -4.7404923052449107e-05  8.7667534222170881e-06  6.0304383070360591e-06  -3.0819173878564064e-06  1.6058636138876728e-07  3.8672594294930971e-07  -1.9578486883841325e-07  4.1981016457388443e-08  4.2020437611690559e-09  -7.6228197876406812e-09  3.7881028745778846e-09  -1.3147801455757049e-09  3.6351599685607242e-10  -8.3107751986140724e-11  1.5655109954254100e-11  -2.2989173848235062e-12  2.0569200333209394e-13  1.2447641231931209e-14  -1.0562602258833805e-14  2.7597408458034083e-15  -4.7214290100656185e-16  4.0523803257598572e-17  0.0000000000000000e+00  0.0000000000000000e+00  -1.8098571204274636e-09  8.7891821828356966e-09  -3.3130511430044683e-08  9.9699778310217123e-08  -2.1668537706045494e-07  1.9953941144339621e-07  7.7707969818804892e-07  -4.2200770090182921e-06  8.3055941807654292e-06  4.5013083993406285e-06  -6.2155703077047540e-05  7.8643380698283552e-05  2.7489371364123282e-04  -4.9111551187954188e-04  -1.7726099005550883e-03  -1.6105935026487601e-03  -2.9544795622514763e-04  2.6005940005508719e-04  3.4880927196900236e-05  -4.8861280739293918e-05  8.2798628926147577e-06  4.3988220350881182e-06  -3.0062113278923410e-06  7.6560772306175271e-07  2.2892745128762044e-08  -1.1099632461032441e-07  5.8851648678641107e-08  -2.0847617053964856e-08  5.7873929441099508e-09  -1.3147801455757051e-09  2.4359231025540875e-10  -3.4563395699318287e-11  2.7700694794114195e-12  2.8507576413995040e-13  -1.7574838813073623e-13  4.2732713934027558e-14  -6.8102001815549506e-15  5.8616713839496530e-16  6.3300608028941519e-17  0.0000000000000000e+00  0.0000000000000000e+00  -6.2380604899209947e-10  5.1475764743660920e-09  -2.9368021112374033e-08  1.3437967632107282e-07  -5.0082215412058174e-07  1.4673541455437951e-06  -2.9586391316103229e-06  1.6104128233723147e-06  1.5076207767732939e-05  -6.1903651835084491e-05  7.8643380698283593e-05  2.0910190550634734e-04  -8.3493697458122040e-04  -4.1083581450898068e-04  4.5514654384787951e-03  7.6823614845145643e-03  3.6775860616133109e-03  -6.7436738495702138e-04  -6.1220992344592124e-04  2.1441134779409283e-04  3.4569785797337566e-05  -4.4117846623955469e-05  1.3684226970026048e-05  -4.2089422567907540e-07  -1.5802474611246045e-06  9.1282666347970241e-07  -3.3149341785902844e-07  9.2457240257176993e-08  -2.0847617053964885e-08  3.7881028745778921e-09  -5.1589136552631770e-10  3.5591443404682000e-11  5.9550685650249575e-12  -2.9044314759244616e-12  6.5553953815934321e-13  -9.6033655713282515e-14  6.5083503876952025e-15  1.2316642332065636e-15  -5.3932683869437920e-16  0.0000000000000000e+00  0.0000000000000000e+00  1.6882446399811489e-10  4.1634551643301084e-10  -9.5306004244584729e-09  7.6982950312185744e-08  -4.4637088444268353e-07  2.0548145713568628e-06  -7.5945679098248462e-06  2.1534861679450805e-05  -3.9182188884585089e-05  3.8842417455869497e-07  2.7489371364123298e-04  -8.3493697458122051e-04  2.4966161351109981e-04  4.7180341281335744e-03  -5.4657221965933225e-03  -2.7396050737282091e-02  -2.5089177427030419e-02  -3.0709008492375840e-03  4.1756777038467700e-03  -1.5141918463037086e-04  -5.9249539076904642e-04  2.3879855756469380e-04  -2.0986492150138682e-05  -2.1670790093811923e-05  1.4119250765041556e-05  -5.2895469305109952e-06  1.4835236844572655e-06  -3.3149341785902711e-07  5.8851648678640935e-08  -7.6228197876406547e-09  4.2149256559968553e-10  1.1791948457422910e-10  -4.7629142048271550e-11  9.9252749022650719e-12  -1.3112788532553608e-12  5.5889864157995171e-14  2.5624008456135834e-14  -8.8552805973918938e-15  1.5035022870270050e-15  0.0000000000000000e+00  0.0000000000000000e+00  1.7103682535359643e-10  -9.9787472367913674e-10  3.1314834719022755e-09  3.5518226808173076e-09  -1.3333674850890828e-07  1.1447006759997801e-06  -6.8086255690412058e-06  3.1603662258932774e-05  -1.1567891308588716e-04  3.1450362003050865e-04  -4.9111551187954177e-04  -4.1083581450898160e-04  4.7180341281335778e-03  -9.2702394580858518e-03  -1.3589210109589512e-02  6.4625344099511609e-02  1.2261214329209760e-01  5.2915309934736206e-02  -1.5271292406076883e-02  -6.3481324700961957e-03  4.0129179783314362e-03  -5.9916067923872728e-04  -2.7695936157485232e-04  2.1731812470273025e-04  -8.4788081015092288e-05  2.3939885079148232e-05  -5.2895469305110206e-06  9.1282666347970474e-07  -1.1099632461032511e-07  4.2020437611691891e-09  2.2538849107376725e-09  -7.7373782092855963e-10  1.4757858528532538e-10  -1.7038154996298724e-11  1.1876618565034014e-13  4.9665168232151279e-13  -1.3909979316100907e-13  2.2204877398060546e-14  -1.3611639348537672e-15  0.0000000000000000e+00  0.0000000000000000e+00  -1.6234541310025765e-11  -2.2681911420269478e-10  2.5508835464165929e-09  -1.5288028511198343e-08  5.4248478556794657e-08  5.5917605514651812e-09  -1.8240879466034417e-06  1.6984158045026118e-05  -1.0437038175230591e-04  4.8994201610320356e-04  -1.7726099005550893e-03  4.5514654384787951e-03  -5.4657221965933216e-03  -1.3589210109589531e-02  7.3694285273998725e-02  -4.1428225944711988e-02  -4.2903408049791603e-01  -3.9650514043637625e-01  -1.5284384685949455e-02  6.2136494006366831e-02  -1.4530006369029362e-02  -2.9999377808986689e-03  3.3137839360901254e-03  -1.3674335074484671e-03  3.8932575689768688e-04  -8.4788081015092179e-05  1.4119250765041595e-05  -1.5802474611246032e-06  2.2892745128762005e-08  4.1981016457388470e-08  -1.2415440758051951e-08  2.1377171185713808e-09  -2.0360419771045823e-10  -1.0351390307341472e-11  9.0495516416974041e-12  -2.1129903486760478e-12  2.8688162671556321e-13  -1.1020459057155111e-14  -5.9912622843690358e-15  0.0000000000000000e+00  0.0000000000000000e+00  -3.2782498024391136e-11  1.8526323608464234e-10  -4.5328023841981671e-10  -2.1619875202294107e-09  3.3987729670746362e-08  -2.2977858325444230e-07  9.2838502797620926e-07  -7.5750642936393943e-07  -2.4046557213258468e-05  2.5095839133156700e-04  -1.6105935026487590e-03  7.6823614845145608e-03  -2.7396050737282095e-02  6.4625344099511609e-02  -4.1428225944711905e-02  -3.3500496047344158e-01  8.7407778214113863e-01  2.0190693662671482e+00  7.2516309149104718e-01  -3.2363233373203776e-01  -1.6003039373488837e-02  4.9539729663154487e-02  -2.2245914913678812e-02  6.4023411870599081e-03  -1.3674335074484671e-03  2.1731812470273011e-04  -2.1670790093812021e-05  -4.2089422567906322e-07  7.6560772306175006e-07  -1.9578486883841259e-07  2.9744858976444997e-08  -2.0534994611394976e-09  -3.5381990569895822e-10  1.5630483530167316e-10  -3.0598749813910792e-11  3.3109323048602350e-12  6.3038010320202637e-14  -1.1829682496396788e-13  2.7290538231470695e-14  0.0000000000000000e+00  0.0000000000000000e+00  5.4923282587449269e-12  3.1343495566913499e-11  -4.5648425910039509e-10  2.8867494202556866e-09  -9.8186951537549828e-09  -1.0831413323286399e-08  4.2357733923151403e-07  -3.3711463803752634e-06  1.5680032999323200e-05  -2.6484447964628190e-05  -2.9544795622514687e-04  3.6775860616133087e-03  -2.5089177427030408e-02  1.2261214329209758e-01  -4.2903408049791608e-01  8.7407778214113840e-01  3.6119593380240056e-01  -6.8756672720842991e+00  -6.4249268483352227e+00  5.6093799498264563e-01  7.0364676225264888e-01  -3.6677132030090887e-01  1.0712646682842965e-01  -2.2245914913678850e-02  3.3137839360901345e-03  -2.7695936157485379e-04  -2.0986492150138482e-05  1.3684226970025995e-05  -3.0062113278923376e-06  3.8672594294930902e-07  -1.2027103039221788e-08  -8.4070686593109269e-09  2.5548205561193497e-09  -4.1274037628769189e-10  3.0303715108883342e-11  4.6157758420750164e-12  -2.1205188265561962e-12  4.0896939386244045e-13  -3.6534216792328689e-14  0.0000000000000000e+00  0.0000000000000000e+00  5.0456755857501550e-12  -3.7111521877943305e-11  1.3471531529078326e-10  8.6878276697018368e-11  -5.2338462168488375e-09  4.2067458896869093e-08  -1.8696557426081362e-07  1.9882685694123814e-07  4.6244479767723675e-06  -4.7404923052449087e-05  2.6005940005508746e-04  -6.7436738495702344e-04  -3.0709008492375719e-03  5.2915309934736122e-02  -3.9650514043637608e-01  2.0190693662671486e+00  -6.8756672720842973e+00  9.7675694560924704e+00  3.5653785252422743e+01  8.1391904507366029e+00  -6.1895533107791740e+00  1.8483621339526284e+00  -3.6677132030090764e-01  4.9539729663154355e-02  -2.9999377808986485e-03  -5.9916067923872804e-04  2.3879855756469418e-04  -4.4117846623955334e-05  4.3988220350880945e-06  1.6058636138877213e-07  -1.7053666368175835e-07  3.8989481941305799e-08  -4.9333877786141161e-09  1.0180387600339264e-10  1.2185501552233096e-10  -3.4401287072958647e-11  5.1701453916098334e-12  -2.8354786506780108e-13  -8.3799899379457967e-14  0.0000000000000000e+00  0.0000000000000000e+00  -1.9620664875553794e-12  1.6942877187601313e-12  5.4015374696926992e-11  -5.1368015944964636e-10  2.5690689972440974e-09  -4.7131802596843627e-09  -4.6122459656270048e-08  5.5526200824851432e-07  -3.2133477931851494e-06  8.7667534222171067e-06  3.4880927196900161e-05  -6.1220992344592157e-04  4.1756777038467726e-03  -1.5271292406076909e-02  -1.5284384685949257e-02  7.2516309149104696e-01  -6.4249268483352253e+00  3.5653785252422750e+01  -1.1596826988694502e+02  -1.0997365474914534e+02  3.4163111557970652e+01  -6.1895533107792007e+00  7.0364676225265099e-01  -1.6003039373489368e-02  -1.4530006369029264e-02  4.0129179783314137e-03  -5.9249539076904447e-04  3.4569785797336963e-05  8.2798628926148322e-06  -3.0819173878564165e-06  5.3632168748880086e-07  -4.5195876163214769e-08  -4.3877200471581849e-09  2.4587671279471545e-09  -4.953194461707616