<?xml version="1.0"?>
<VTKFile type="UnstructuredGrid"  version="0.1"  >
<UnstructuredGrid>
<Piece  NumberOfPoints="1681" NumberOfCells="3200">
<Points>
<DataArray  type="Float64"  NumberOfComponents="3"  format="ascii">-2 -2 0  -1.9 -2 0  -1.8 -2 0  -1.7 -2 0  -1.6 -2 0  -1.5 -2 0  -1.4 -2 0  -1.3 -2 0  -1.2 -2 0  -1.1 -2 0  -1 -2 0  -0.8999999999999999 -2 0  -0.8 -2 0  -0.7 -2 0  -0.6000000000000001 -2 0  -0.5 -2 0  -0.3999999999999999 -2 0  -0.3 -2 0  -0.2 -2 0  -0.1000000000000001 -2 0  0 -2 0  0.1000000000000001 -2 0  0.2000000000000002 -2 0  0.2999999999999998 -2 0  0.3999999999999999 -2 0  0.5 -2 0  0.6000000000000001 -2 0  0.7000000000000002 -2 0  0.7999999999999998 -2 0  0.8999999999999999 -2 0  1 -2 0  1.1 -2 0  1.2 -2 0  1.3 -2 0  1.4 -2 0  1.5 -2 0  1.6 -2 0  1.7 -2 0  1.8 -2 0  1.9 -2 0  2 -2 0  -2 -1.9 0  -1.9 -1.9 0  -1.8 -1.9 0  -1.7 -1.9 0  -1.6 -1.9 0  -1.5 -1.9 0  -1.4 -1.9 0  -1.3 -1.9 0  -1.2 -1.9 0  -1.1 -1.9 0  -1 -1.9 0  -0.8999999999999999 -1.9 0  -0.8 -1.9 0  -0.7 -1.9 0  -0.6000000000000001 -1.9 0  -0.5 -1.9 0  -0.3999999999999999 -1.9 0  -0.3 -1.9 0  -0.2 -1.9 0  -0.1000000000000001 -1.9 0  0 -1.9 0  0.1000000000000001 -1.9 0  0.2000000000000002 -1.9 0  0.2999999999999998 -1.9 0  0.3999999999999999 -1.9 0  0.5 -1.9 0  0.6000000000000001 -1.9 0  0.7000000000000002 -1.9 0  0.7999999999999998 -1.9 0  0.8999999999999999 -1.9 0  1 -1.9 0  1.1 -1.9 0  1.2 -1.9 0  1.3 -1.9 0  1.4 -1.9 0  1.5 -1.9 0  1.6 -1.9 0  1.7 -1.9 0  1.8 -1.9 0  1.9 -1.9 0  2 -1.9 0  -2 -1.8 0  -1.9 -1.8 0  -1.8 -1.8 0  -1.7 -1.8 0  -1.6 -1.8 0  -1.5 -1.8 0  -1.4 -1.8 0  -1.3 -1.8 0  -1.2 -1.8 0  -1.1 -1.8 0  -1 -1.8 0  -0.8999999999999999 -1.8 0  -0.8 -1.8 0  -0.7 -1.8 0  -0.6000000000000001 -1.8 0  -0.5 -1.8 0  -0.3999999999999999 -1.8 0  -0.3 -1.8 0  -0.2 -1.8 0  -0.1000000000000001 -1.8 0  0 -1.8 0  0.1000000000000001 -1.8 0  0.2000000000000002 -1.8 0  0.2999999999999998 -1.8 0  0.3999999999999999 -1.8 0  0.5 -1.8 0  0.6000000000000001 -1.8 0  0.7000000000000002 -1.8 0  0.7999999999999998 -1.8 0  0.8999999999999999 -1.8 0  1 -1.8 0  1.1 -1.8 0  1.2 -1.8 0  1.3 -1.8 0  1.4 -1.8 0  1.5 -1.8 0  1.6 -1.8 0  1.7 -1.8 0  1.8 -1.8 0  1.9 -1.8 0  2 -1.8 0  -2 -1.7 0  -1.9 -1.7 0  -1.8 -1.7 0  -1.7 -1.7 0  -1.6 -1.7 0  -1.5 -1.7 0  -1.4 -1.7 0  -1.3 -1.7 0  -1.2 -1.7 0  -1.1 -1.7 0  -1 -1.7 0  -0.8999999999999999 -1.7 0  -0.8 -1.7 0  -0.7 -1.7 0  -0.6000000000000001 -1.7 0  -0.5 -1.7 0  -0.3999999999999999 -1.7 0  -0.3 -1.7 0  -0.2 -1.7 0  -0.1000000000000001 -1.7 0  0 -1.7 0  0.1000000000000001 -1.7 0  0.2000000000000002 -1.7 0  0.2999999999999998 -1.7 0  0.3999999999999999 -1.7 0  0.5 -1.7 0  0.6000000000000001 -1.7 0  0.7000000000000002 -1.7 0  0.7999999999999998 -1.7 0  0.8999999999999999 -1.7 0  1 -1.7 0  1.1 -1.7 0  1.2 -1.7 0  1.3 -1.7 0  1.4 -1.7 0  1.5 -1.7 0  1.6 -1.7 0  1.7 -1.7 0  1.8 -1.7 0  1.9 -1.7 0  2 -1.7 0  -2 -1.6 0  -1.9 -1.6 0  -1.8 -1.6 0  -1.7 -1.6 0  -1.6 -1.6 0  -1.5 -1.6 0  -1.4 -1.6 0  -1.3 -1.6 0  -1.2 -1.6 0  -1.1 -1.6 0  -1 -1.6 0  -0.8999999999999999 -1.6 0  -0.8 -1.6 0  -0.7 -1.6 0  -0.6000000000000001 -1.6 0  -0.5 -1.6 0  -0.3999999999999999 -1.6 0  -0.3 -1.6 0  -0.2 -1.6 0  -0.1000000000000001 -1.6 0  0 -1.6 0  0.1000000000000001 -1.6 0  0.2000000000000002 -1.6 0  0.2999999999999998 -1.6 0  0.3999999999999999 -1.6 0  0.5 -1.6 0  0.6000000000000001 -1.6 0  0.7000000000000002 -1.6 0  0.7999999999999998 -1.6 0  0.8999999999999999 -1.6 0  1 -1.6 0  1.1 -1.6 0  1.2 -1.6 0  1.3 -1.6 0  1.4 -1.6 0  1.5 -1.6 0  1.6 -1.6 0  1.7 -1.6 0  1.8 -1.6 0  1.9 -1.6 0  2 -1.6 0  -2 -1.5 0  -1.9 -1.5 0  -1.8 -1.5 0  -1.7 -1.5 0  -1.6 -1.5 0  -1.5 -1.5 0  -1.4 -1.5 0  -1.3 -1.5 0  -1.2 -1.5 0  -1.1 -1.5 0  -1 -1.5 0  -0.8999999999999999 -1.5 0  -0.8 -1.5 0  -0.7 -1.5 0  -0.6000000000000001 -1.5 0  -0.5 -1.5 0  -0.3999999999999999 -1.5 0  -0.3 -1.5 0  -0.2 -1.5 0  -0.1000000000000001 -1.5 0  0 -1.5 0  0.1000000000000001 -1.5 0  0.2000000000000002 -1.5 0  0.2999999999999998 -1.5 0  0.3999999999999999 -1.5 0  0.5 -1.5 0  0.6000000000000001 -1.5 0  0.7000000000000002 -1.5 0  0.7999999999999998 -1.5 0  0.8999999999999999 -1.5 0  1 -1.5 0  1.1 -1.5 0  1.2 -1.5 0  1.3 -1.5 0  1.4 -1.5 0  1.5 -1.5 0  1.6 -1.5 0  1.7 -1.5 0  1.8 -1.5 0  1.9 -1.5 0  2 -1.5 0  -2 -1.4 0  -1.9 -1.4 0  -1.8 -1.4 0  -1.7 -1.4 0  -1.6 -1.4 0  -1.5 -1.4 0  -1.4 -1.4 0  -1.3 -1.4 0  -1.2 -1.4 0  -1.1 -1.4 0  -1 -1.4 0  -0.8999999999999999 -1.4 0  -0.8 -1.4 0  -0.7 -1.4 0  -0.6000000000000001 -1.4 0  -0.5 -1.4 0  -0.3999999999999999 -1.4 0  -0.3 -1.4 0  -0.2 -1.4 0  -0.1000000000000001 -1.4 0  0 -1.4 0  0.1000000000000001 -1.4 0  0.2000000000000002 -1.4 0  0.2999999999999998 -1.4 0  0.3999999999999999 -1.4 0  0.5 -1.4 0  0.6000000000000001 -1.4 0  0.7000000000000002 -1.4 0  0.7999999999999998 -1.4 0  0.8999999999999999 -1.4 0  1 -1.4 0  1.1 -1.4 0  1.2 -1.4 0  1.3 -1.4 0  1.4 -1.4 0  1.5 -1.4 0  1.6 -1.4 0  1.7 -1.4 0  1.8 -1.4 0  1.9 -1.4 0  2 -1.4 0  -2 -1.3 0  -1.9 -1.3 0  -1.8 -1.3 0  -1.7 -1.3 0  -1.6 -1.3 0  -1.5 -1.3 0  -1.4 -1.3 0  -1.3 -1.3 0  -1.2 -1.3 0  -1.1 -1.3 0  -1 -1.3 0  -0.8999999999999999 -1.3 0  -0.8 -1.3 0  -0.7 -1.3 0  -0.6000000000000001 -1.3 0  -0.5 -1.3 0  -0.3999999999999999 -1.3 0  -0.3 -1.3 0  -0.2 -1.3 0  -0.1000000000000001 -1.3 0  0 -1.3 0  0.1000000000000001 -1.3 0  0.2000000000000002 -1.3 0  0.2999999999999998 -1.3 0  0.3999999999999999 -1.3 0  0.5 -1.3 0  0.6000000000000001 -1.3 0  0.7000000000000002 -1.3 0  0.7999999999999998 -1.3 0  0.8999999999999999 -1.3 0  1 -1.3 0  1.1 -1.3 0  1.2 -1.3 0  1.3 -1.3 0  1.4 -1.3 0  1.5 -1.3 0  1.6 -1.3 0  1.7 -1.3 0  1.8 -1.3 0  1.9 -1.3 0  2 -1.3 0  -2 -1.2 0  -1.9 -1.2 0  -1.8 -1.2 0  -1.7 -1.2 0  -1.6 -1.2 0  -1.5 -1.2 0  -1.4 -1.2 0  -1.3 -1.2 0  -1.2 -1.2 0  -1.1 -1.2 0  -1 -1.2 0  -0.8999999999999999 -1.2 0  -0.8 -1.2 0  -0.7 -1.2 0  -0.6000000000000001 -1.2 0  -0.5 -1.2 0  -0.3999999999999999 -1.2 0  -0.3 -1.2 0  -0.2 -1.2 0  -0.1000000000000001 -1.2 0  0 -1.2 0  0.1000000000000001 -1.2 0  0.2000000000000002 -1.2 0  0.2999999999999998 -1.2 0  0.3999999999999999 -1.2 0  0.5 -1.2 0  0.6000000000000001 -1.2 0  0.7000000000000002 -1.2 0  0.7999999999999998 -1.2 0  0.8999999999999999 -1.2 0  1 -1.2 0  1.1 -1.2 0  1.2 -1.2 0  1.3 -1.2 0  1.4 -1.2 0  1.5 -1.2 0  1.6 -1.2 0  1.7 -1.2 0  1.8 -1.2 0  1.9 -1.2 0  2 -1.2 0  -2 -1.1 0  -1.9 -1.1 0  -1.8 -1.1 0  -1.7 -1.1 0  -1.6 -1.1 0  -1.5 -1.1 0  -1.4 -1.1 0  -1.3 -1.1 0  -1.2 -1.1 0  -1.1 -1.1 0  -1 -1.1 0  -0.8999999999999999 -1.1 0  -0.8 -1.1 0  -0.7 -1.1 0  -0.6000000000000001 -1.1 0  -0.5 -1.1 0  -0.3999999999999999 -1.1 0  -0.3 -1.1 0  -0.2 -1.1 0  -0.1000000000000001 -1.1 0  0 -1.1 0  0.1000000000000001 -1.1 0  0.2000000000000002 -1.1 0  0.2999999999999998 -1.1 0  0.3999999999999999 -1.1 0  0.5 -1.1 0  0.6000000000000001 -1.1 0  0.7000000000000002 -1.1 0  0.7999999999999998 -1.1 0  0.8999999999999999 -1.1 0  1 -1.1 0  1.1 -1.1 0  1.2 -1.1 0  1.3 -1.1 0  1.4 -1.1 0  1.5 -1.1 0  1.6 -1.1 0  1.7 -1.1 0  1.8 -1.1 0  1.9 -1.1 0  2 -1.1 0  -2 -1 0  -1.9 -1 0  -1.8 -1 0  -1.7 -1 0  -1.6 -1 0  -1.5 -1 0  -1.4 -1 0  -1.3 -1 0  -1.2 -1 0  -1.1 -1 0  -1 -1 0  -0.8999999999999999 -1 0  -0.8 -1 0  -0.7 -1 0  -0.6000000000000001 -1 0  -0.5 -1 0  -0.3999999999999999 -1 0  -0.3 -1 0  -0.2 -1 0  -0.1000000000000001 -1 0  0 -1 0  0.1000000000000001 -1 0  0.2000000000000002 -1 0  0.2999999999999998 -1 0  0.3999999999999999 -1 0  0.5 -1 0  0.6000000000000001 -1 0  0.7000000000000002 -1 0  0.7999999999999998 -1 0  0.8999999999999999 -1 0  1 -1 0  1.1 -1 0  1.2 -1 0  1.3 -1 0  1.4 -1 0  1.5 -1 0  1.6 -1 0  1.7 -1 0  1.8 -1 0  1.9 -1 0  2 -1 0  -2 -0.8999999999999999 0  -1.9 -0.8999999999999999 0  -1.8 -0.8999999999999999 0  -1.7 -0.8999999999999999 0  -1.6 -0.8999999999999999 0  -1.5 -0.8999999999999999 0  -1.4 -0.8999999999999999 0  -1.3 -0.8999999999999999 0  -1.2 -0.8999999999999999 0  -1.1 -0.8999999999999999 0  -1 -0.8999999999999999 0  -0.8999999999999999 -0.8999999999999999 0  -0.8 -0.8999999999999999 0  -0.7 -0.8999999999999999 0  -0.6000000000000001 -0.8999999999999999 0  -0.5 -0.8999999999999999 0  -0.3999999999999999 -0.8999999999999999 0  -0.3 -0.8999999999999999 0  -0.2 -0.8999999999999999 0  -0.1000000000000001 -0.8999999999999999 0  0 -0.8999999999999999 0  0.1000000000000001 -0.8999999999999999 0  0.2000000000000002 -0.8999999999999999 0  0.2999999999999998 -0.8999999999999999 0  0.3999999999999999 -0.8999999999999999 0  0.5 -0.8999999999999999 0  0.6000000000000001 -0.8999999999999999 0  0.7000000000000002 -0.8999999999999999 0  0.7999999999999998 -0.8999999999999999 0  0.8999999999999999 -0.8999999999999999 0  1 -0.8999999999999999 0  1.1 -0.8999999999999999 0  1.2 -0.8999999999999999 0  1.3 -0.8999999999999999 0  1.4 -0.8999999999999999 0  1.5 -0.8999999999999999 0  1.6 -0.8999999999999999 0  1.7 -0.8999999999999999 0  1.8 -0.8999999999999999 0  1.9 -0.8999999999999999 0  2 -0.8999999999999999 0  -2 -0.8 0  -1.9 -0.8 0  -1.8 -0.8 0  -1.7 -0.8 0  -1.6 -0.8 0  -1.5 -0.8 0  -1.4 -0.8 0  -1.3 -0.8 0  -1.2 -0.8 0  -1.1 -0.8 0  -1 -0.8 0  -0.8999999999999999 -0.8 0  -0.8 -0.8 0  -0.7 -0.8 0  -0.6000000000000001 -0.8 0  -0.5 -0.8 0  -0.3999999999999999 -0.8 0  -0.3 -0.8 0  -0.2 -0.8 0  -0.1000000000000001 -0.8 0  0 -0.8 0  0.1000000000000001 -0.8 0  0.2000000000000002 -0.8 0  0.2999999999999998 -0.8 0  0.3999999999999999 -0.8 0  0.5 -0.8 0  0.6000000000000001 -0.8 0  0.7000000000000002 -0.8 0  0.7999999999999998 -0.8 0  0.8999999999999999 -0.8 0  1 -0.8 0  1.1 -0.8 0  1.2 -0.8 0  1.3 -0.8 0  1.4 -0.8 0  1.5 -0.8 0  1.6 -0.8 0  1.7 -0.8 0  1.8 -0.8 0  1.9 -0.8 0  2 -0.8 0  -2 -0.7 0  -1.9 -0.7 0  -1.8 -0.7 0  -1.7 -0.7 0  -1.6 -0.7 0  -1.5 -0.7 0  -1.4 -0.7 0  -1.3 -0.7 0  -1.2 -0.7 0  -1.1 -0.7 0  -1 -0.7 0  -0.8999999999999999 -0.7 0  -0.8 -0.7 0  -0.7 -0.7 0  -0.6000000000000001 -0.7 0  -0.5 -0.7 0  -0.3999999999999999 -0.7 0  -0.3 -0.7 0  -0.2 -0.7 0  -0.1000000000000001 -0.7 0  0 -0.7 0  0.1000000000000001 -0.7 0  0.2000000000000002 -0.7 0  0.2999999999999998 -0.7 0  0.3999999999999999 -0.7 0  0.5 -0.7 0  0.600000000000000
[...]
<PointData  Scalars="f_1726"> 
<DataArray  type="Float64"  Name="f_1726"  format="ascii">0.0000000000000000e+00  0.0000000000000000e+00  0.0000000000000000e+00  0.0000000000000000e+00  0.0000000000000000e+00  0.0000000000000000e+00  0.0000000000000000e+00  0.0000000000000000e+00  0.0000000000000000e+00  0.0000000000000000e+00  0.0000000000000000e+00  0.0000000000000000e+00  0.0000000000000000e+00  0.0000000000000000e+00  0.0000000000000000e+00  0.0000000000000000e+00  0.0000000000000000e+00  0.0000000000000000e+00  0.0000000000000000e+00  0.0000000000000000e+00  0.0000000000000000e+00  0.0000000000000000e+00  0.0000000000000000e+00  0.0000000000000000e+00  0.0000000000000000e+00  0.0000000000000000e+00  0.0000000000000000e+00  0.0000000000000000e+00  0.0000000000000000e+00  0.0000000000000000e+00  0.0000000000000000e+00  0.0000000000000000e+00  0.0000000000000000e+00  0.0000000000000000e+00  0.0000000000000000e+00  0.0000000000000000e+00  0.0000000000000000e+00  0.0000000000000000e+00  0.0000000000000000e+00  0.0000000000000000e+00  0.0000000000000000e+00  0.0000000000000000e+00  -3.7837647827550182e-11  -4.4094451868639820e-11  2.8975718561117239e-10  -6.9823266183255773e-11  -1.4675189370591828e-09  7.9065633945558526e-10  7.2206122843260576e-09  9.9343085414435521e-10  -2.9971450501526979e-08  -5.9804028692284124e-08  -5.2714490316939627e-08  -1.8169178968931943e-08  4.9172365443904081e-09  4.9816745046773399e-09  -4.7285255892751102e-10  -9.5483375740936948e-10  1.5997134886795911e-10  1.4696199705788032e-10  -5.7147790116714197e-11  -1.0440721773717452e-11  1.2442214688556362e-11  -2.4407832720825981e-12  -1.0641075450648337e-12  7.9487314059750283e-13  -1.7450346445084180e-13  -3.9645705870234391e-14  4.3791499260594814e-14  -1.5708609864907805e-14  1.8437142088928374e-15  1.1803095450560763e-15  -8.7970959393187970e-16  3.2967431786680815e-16  -7.2906179195520643e-17  6.0362548561768902e-19  8.5481836226740338e-18  -5.1420588645784430e-18  2.0921458778552839e-18  -6.9352615309863973e-19  2.1984325768159484e-19  0.0000000000000000e+00  0.0000000000000000e+00  -4.4094451868639845e-11  3.1710964132976889e-10  -2.8210025830391336e-10  -1.3891765388752441e-09  2.9172485306550819e-09  5.4522767389926194e-09  -1.5708025781139904e-08  -3.0683926750161715e-08  4.5751925190978299e-08  1.9609218953709184e-07  2.5599659433971294e-07  1.4992999566152935e-07  1.2126615657552931e-08  -2.9064425509168695e-08  -6.6064076906307318e-09  5.3960375956982418e-09  9.1292090127582276e-10  -1.0809223217685132e-09  4.9348378132520845e-11  1.6945091170010792e-10  -5.7105758928640587e-11  -8.2587078387576457e-12  1.1911776299553635e-11  -3.4455520072296873e-12  -3.2098549421372218e-13  6.4674652014101270e-13  -2.5792179837640743e-13  3.5873855213362669e-14  1.7072895750871090e-14  -1.3751788526512952e-14  5.1806559784622316e-15  -1.1060979312804516e-15  -2.0654532069249868e-17  1.4585110773190612e-16  -8.2742506766267918e-17  3.2347628170106610e-17  -1.0228918689296729e-17  2.7786358232902597e-18  -6.9352615309864041e-19  0.0000000000000000e+00  0.0000000000000000e+00  2.8975718561117228e-10  -2.8210025830391316e-10  -1.2700556193758796e-09  3.7613424040594646e-09  2.0751358443847558e-09  -2.2314333335645482e-08  1.3846059136988306e-09  1.1147010029987031e-07  4.2332811779726103e-08  -4.5343174836610616e-07  -9.6497010966360538e-07  -8.5538258632829190e-07  -2.7759138449065927e-07  9.1208611604799019e-08  7.4297868317615219e-08  -1.3202388447878055e-08  -1.3295709801942641e-08  3.9237623253719451e-09  1.5732694665723122e-09  -1.0354848296244853e-09  4.2180654740547343e-11  1.5058734532525740e-10  -6.1762924756724854e-11  1.8360657021580987e-12  8.3558080706578610e-12  -4.0514660615543194e-12  7.4633324940209015e-13  1.8956434163729790e-13  -1.9835611743882253e-13  8.0381114316364344e-14  -1.8383294749664748e-14  2.1133994410340679e-16  2.1190436962559343e-15  -1.2565825543095108e-15  4.9889208850588406e-16  -1.5928932186571197e-16  4.3165053976553004e-17  -1.0228918689296681e-17  2.0921458778552774e-18  0.0000000000000000e+00  0.0000000000000000e+00  -6.9823266183255773e-11  -1.3891765388752437e-09  3.7613424040594622e-09  7.0590098648486029e-10  -2.2855465786979940e-08  2.6025817113514067e-08  9.9756770941222916e-08  -1.8193444169140804e-07  -5.0265506582836711e-07  5.4650596370075365e-07  2.9038883451162483e-06  3.9139863949854675e-06  2.2422305843914850e-06  1.0345154885553113e-07  -4.4528411763704202e-07  -6.2970755489008029e-08  8.4080407587952531e-08  2.5304450964702410e-09  -1.4961616298703606e-08  3.1157838984248613e-09  1.5341543956746421e-09  -1.0019831365856272e-09  1.3444059654540992e-10  9.6435296993706549e-11  -6.1543647848158734e-11  1.4465639305519107e-11  1.6278664595777108e-12  -2.7971076595275566e-12  1.2446469997365394e-12  -3.0764980738560730e-13  1.2991462490568007e-14  3.0455916846848297e-14  -1.9167057262669333e-14  7.7635162829904497e-15  -2.5005443157761786e-15  6.8011324836821837e-16  -1.5928932186571274e-16  3.2347628170106654e-17  -5.1420588645784638e-18  0.0000000000000000e+00  0.0000000000000000e+00  -1.4675189370591843e-09  2.9172485306550827e-09  2.0751358443847550e-09  -2.2855465786979937e-08  3.3992540944954209e-08  7.5198695169599888e-08  -2.8724523355764224e-07  -1.5968093016945593e-07  1.5496300282517452e-06  1.0669405713901406e-06  -6.3112491488708903e-06  -1.4587109830892491e-05  -1.3001144344565766e-05  -3.8836097384886177e-06  1.5800589258203049e-06  9.8993772845458532e-07  -2.8598252578377581e-07  -1.5244271639148247e-07  7.4827543705100530e-08  8.0556985211231581e-09  -1.4426836159748074e-08  3.5491890289689267e-09  8.8263591564467569e-10  -8.9122919294031579e-10  2.6358020033992056e-10  3.4592227600632142e-12  -3.8192736671064795e-11  1.9093458951339765e-11  -5.1189050228160142e-12  3.6255406892804596e-13  4.3161650253136637e-13  -2.9184700248429475e-13  1.2087000323987740e-13  -3.9281175160559909e-14  1.0707435166358022e-14  -2.5005443157761739e-15  4.9889208850588505e-16  -8.2742506766267734e-17  8.5481836226740245e-18  0.0000000000000000e+00  0.0000000000000000e+00  7.9065633945558836e-10  5.4522767389926219e-09  -2.2314333335645485e-08  2.6025817113514074e-08  7.5198695169599861e-08  -3.1028611657188727e-07  8.4027053657957640e-08  1.6355924703479100e-06  -1.7570710169542379e-06  -7.9899088828942027e-06  5.8118501475389187e-06  4.2738636671230876e-05  5.9849201134349419e-05  3.3340926208878070e-05  1.6286744634034083e-07  -6.6926061539849865e-06  -3.1547928635068304e-07  1.2252705639843541e-06  -1.3727762946416444e-07  -1.7274753684745510e-07  7.1614855390997237e-08  2.9651729825723436e-09  -1.2021611166791288e-08  4.5525857450309554e-09  -3.0149797901965655e-10  -4.9625887393739443e-10  2.8908680239070081e-10  -8.4595420923433614e-11  8.3032099267595364e-12  5.9910525508005948e-12  -4.4297086980126131e-12  1.8817866758995887e-12  -6.1767503284883583e-13  1.6875082304876998e-13  -3.9281175160559896e-14  7.7635162829904355e-15  -1.2565825543095141e-15  1.4585110773190619e-16  6.0362548561761237e-19  0.0000000000000000e+00  0.0000000000000000e+00  7.2206122843260617e-09  -1.5708025781139927e-08  1.3846059136988428e-09  9.9756770941222942e-08  -2.8724523355764224e-07  8.4027053657957812e-08  1.5560605397495379e-06  -3.1057422737251802e-06  -4.9322675327963903e-06  2.0357800853507596e-05  2.2633477396242883e-05  -8.6174290828965828e-05  -2.2120186838243128e-04  -1.9831025475984513e-04  -5.3128982013653551e-05  2.7040445908837641e-05  1.2337252093204446e-05  -5.4456204540858357e-06  -1.3433778420970831e-06  1.2021282618295996e-06  -1.2779816888790252e-07  -1.4369146566886931e-07  7.4412538949628831e-08  -1.0305474273296660e-08  -5.9302424415476695e-09  4.2984221335513733e-09  -1.3872619661350684e-09  1.7344927434579953e-10  8.0681949476317706e-11  -6.6959019501550718e-11  2.9294938689675785e-11  -9.7241494234309272e-12  2.6633277930365218e-12  -6.1767503284883663e-13  1.2087000323987758e-13  -1.9167057262669359e-14  2.1190436962559466e-15  -2.0654532069251332e-17  -7.2906179195520372e-17  0.0000000000000000e+00  0.0000000000000000e+00  9.9343085414434528e-10  -3.0683926750161715e-08  1.1147010029987039e-07  -1.8193444169140820e-07  -1.5968093016945601e-07  1.6355924703479100e-06  -3.1057422737251810e-06  -3.3506768597648601e-06  2.3861668302530016e-05  -9.6260713590314554e-06  -1.2291534293938731e-04  4.6905410502175172e-05  6.2723142322412947e-04  9.2049860142266965e-04  4.9468614107750172e-04  -2.2063379967968360e-05  -9.8189111847296213e-05  5.7910960521020810e-06  1.6172742824177999e-05  -4.4420119827340816e-06  -1.3163898682834525e-06  1.1356204006711917e-06  -2.4486703090154377e-07  -5.9810896804114925e-08  6.2263847833839557e-08  -2.2536140786381629e-08  3.4345614676469759e-09  1.0366480190871990e-09  -1.0067047654468592e-09  4.5597585178394489e-10  -1.5329948930298619e-10  4.2103918586584671e-11  -9.7241494234308820e-12  1.8817866758995822e-12  -2.9184700248429358e-13  3.0455916846848108e-14  2.1133994410342631e-16  -1.1060979312804490e-15  3.2967431786680726e-16  0.0000000000000000e+00  0.0000000000000000e+00  -2.9971450501526966e-08  4.5751925190978326e-08  4.2332811779726030e-08  -5.0265506582836754e-07  1.5496300282517467e-06  -1.7570710169542393e-06  -4.9322675327963945e-06  2.3861668302530040e-05  -2.1316414653869919e-05  -1.0487900024445975e-04  2.4191145205704407e-04  4.3911455739700653e-04  -1.1412332461167541e-03  -3.3693018498056030e-03  -3.0399258682684070e-03  -7.0038788867192990e-04  4.5670176854451980e-04  1.3469318397641336e-04  -9.3593018596302148e-05  -2.7518726319233097e-06  1.5621080848202873e-05  -4.9671066322693732e-06  -3.5030533601025449e-07  8.6635848918406000e-07  -3.6161618739621212e-07  6.5647388935606623e-08  1.2276530294678207e-08  -1.5026020609962108e-08  7.0949492837350926e-09  -2.4206235607710899e-09  6.6690506757774735e-10  -1.5329948930298681e-10  2.9294938689675824e-11  -4.4297086980126333e-12  4.3161650253137067e-13  1.2991462490567082e-14  -1.8383294749664650e-14  5.1806559784622016e-15  -8.7970959393187674e-16  0.0000000000000000e+00  0.0000000000000000e+00  -5.9804028692284137e-08  1.9609218953709179e-07  -4.5343174836610627e-07  5.4650596370075460e-07  1.0669405713901408e-06  -7.9899088828942095e-06  2.0357800853507620e-05  -9.6260713590314724e-06  -1.0487900024445983e-04  2.9098075850879211e-04  1.3110658037721642e-04  -1.8030260059827420e-03  1.1313369523777898e-05  9.1603352804032201e-03  1.4270211373168612e-02  7.3094961698844454e-03  -7.7139469189210514e-04  -1.3807312903426213e-03  2.5534332692367980e-04  1.7564451809768932e-04  -8.9764933632657747e-05  4.6772908739124039e-06  1.1263906274599066e-05  -5.7024941118822724e-06  1.2227528132251685e-06  1.2239010066561780e-07  -2.2202474181412314e-07  1.1033352304315789e-07  -3.8294716456117437e-08  1.0587885794982604e-08  -2.4206235607710854e-09  4.5597585178394582e-10  -6.6959019501550615e-11  5.9910525508005932e-12  3.6255406892804748e-13  -3.0764980738560705e-13  8.0381114316364558e-14  -1.3751788526512946e-14  1.1803095450560785e-15  0.0000000000000000e+00  0.0000000000000000e+00  -5.2714490316939601e-08  2.5599659433971294e-07  -9.6497010966360517e-07  2.9038883451162470e-06  -6.3112491488708937e-06  5.8118501475389238e-06  2.2633477396242890e-05  -1.2291534293938744e-04  2.4191145205704434e-04  1.3110658037721656e-04  -1.8103673328774854e-03  2.2905928227814538e-03  8.0066441943802552e-03  -1.4304390994885986e-02  -5.1629615611011682e-02  -4.6910673025863624e-02  -8.6053137851631444e-03  7.5745751260161082e-03  1.0159532916789510e-03  -1.4231496405619187e-03  2.4116199414417886e-04  1.2812152901872477e-04  -8.7559894174091588e-05  2.2299340897352577e-05  6.6678158059972527e-07  -3.2329152466493452e-06  1.7141323640362432e-06  -6.0721451153167983e-07  1.6856549938072062e-07  -3.8294716456117437e-08  7.0949492837350893e-09  -1.0067047654468631e-09  8.0681949476318030e-11  8.3032099267594411e-12  -5.1189050228159940e-12  1.2446469997365335e-12  -1.9835611743882220e-13  1.7072895750870954e-14  1.8437142088928552e-15  0.0000000000000000e+00  0.0000000000000000e+00  -1.8169178968931926e-08  1.4992999566152921e-07  -8.5538258632829169e-07  3.9139863949854683e-06  -1.4587109830892488e-05  4.2738636671230889e-05  -8.6174290828965814e-05  4.6905410502175206e-05  4.3911455739700697e-04  -1.8030260059827437e-03  2.2905928227814542e-03  6.0903704765736177e-03  -2.4318647347930548e-02  -1.1966138277628543e-02  1.3256747070061947e-01  2.2375897274754125e-01  1.0711457420950397e-01  -1.9641844973917376e-02  -1.7831426424314661e-02  6.2450150288461178e-03  1.0068908855313467e-03  -1.2849908274048939e-03  3.9857126950212875e-04  -1.2259102850491892e-05  -4.6026804297206902e-05  2.6587287896892068e-05  -9.6551856876589897e-06  2.6929398134570865e-06  -6.0721451153168057e-07  1.1033352304315812e-07  -1.5026020609962145e-08  1.0366480190872091e-09  1.7344927434579824e-10  -8.4595420923433484e-11  1.9093458951339749e-11  -2.7971076595275534e-12  1.8956434163729843e-13  3.5873855213362568e-14  -1.5708609864907792e-14  0.0000000000000000e+00  0.0000000000000000e+00  4.9172365443904188e-09  1.2126615657552853e-08  -2.7759138449065879e-07  2.2422305843914828e-06  -1.3001144344565766e-05  5.9849201134349413e-05  -2.2120186838243134e-04  6.2723142322412958e-04  -1.1412332461167550e-03  1.1313369523777942e-05  8.0066441943802674e-03  -2.4318647347930558e-02  7.2717257950362154e-03  1.3741900482384276e-01  -1.5919641200148973e-01  -7.9794633234459322e-01  -7.3075558595741641e-01  -8.9444062326412804e-02  1.2162215425828858e-01  -4.4102846859598336e-03  -1.7257214498871257e-02  6.9553248752973595e-03  -6.1125943299530905e-04  -6.3119051866971005e-04  4.1124191480951478e-04  -1.5406507359186567e-04  4.3209595949100411e-05  -9.6551856876589541e-06  1.7141323640362377e-06  -2.2202474181412235e-07  1.2276530294678109e-08  3.4345614676469933e-09  -1.3872619661350651e-09  2.8908680239069988e-10  -3.8192736671064588e-11  1.6278664595776781e-12  7.4633324940209631e-13  -2.5792179837640754e-13  4.3791499260594814e-14  0.0000000000000000e+00  0.0000000000000000e+00  4.9816745046773432e-09  -2.9064425509168721e-08  9.1208611604799191e-08  1.0345154885553006e-07  -3.8836097384886134e-06  3.3340926208878070e-05  -1.9831025475984513e-04  9.2049860142266998e-04  -3.3693018498056034e-03  9.1603352804032270e-03  -1.4304390994886002e-02  -1.1966138277628598e-02  1.3741900482384284e-01  -2.7000802584546518e-01  -3.9580377735432654e-01  1.8822989048759702e+00  3.5712413799736344e+00  1.5412286205850814e+00  -4.4479665636653010e-01  -1.8489778217768821e-01  1.1688156127013088e-01  -1.7451349870403584e-02  -8.0668089315664056e-03  6.3296787636097120e-03  -2.4695653735397195e-03  6.9728092121180453e-04  -1.5406507359186638e-04  2.6587287896892115e-05  -3.2329152466493630e-06  1.2239010066562143e-07  6.5647388935605856e-08  -2.2536140786381579e-08  4.2984221335513518e-09  -4.9625887393739205e-10  3.4592227600629783e-12  1.4465639305519092e-11  -4.0514660615543266e-12  6.4674652014101099e-13  -3.9645705870234202e-14  0.0000000000000000e+00  0.0000000000000000e+00  -4.7285255892751412e-10  -6.6064076906307252e-09  7.4297868317615259e-08  -4.4528411763704234e-07  1.5800589258203089e-06  1.6286744634032106e-07  -5.3128982013653476e-05  4.9468614107750139e-04  -3.0399258682684079e-03  1.4270211373168612e-02  -5.1629615611011717e-02  1.3256747070061964e-01  -1.5919641200148968e-01  -3.9580377735432681e-01  2.1464438510883461e+00  -1.2066520559892051e+00  -1.2496186923696383e+01  -1.1548738378427050e+01  -4.4517798639130352e-01  1.8098078432034284e+00  -4.2320571684927488e-01  -8.7377168792889884e-02  9.6518354537398349e-02  -3.9828315491791846e-02  1.1339629305804540e-02  -2.4695653735397160e-03  4.1124191480951564e-04  -4.6026804297206835e-05  6.6678158059972146e-07  1.2227528132251691e-06  -3.6161618739621180e-07  6.2263847833839729e-08  -5.9302424415476645e-09  -3.0149797901965619e-10  2.6358020033992041e-10  -6.1543647848158643e-11  8.3558080706578739e-12  -3.2098549421372147e-13  -1.7450346445084173e-13  0.0000000000000000e+00  0.0000000000000000e+00  -9.5483375740936989e-10  5.3960375956982509e-09  -1.3202388447878115e-08  -6.2970755489007804e-08  9.8993772845458511e-07  -6.6926061539849908e-06  2.7040445908837688e-05  -2.2063379967968705e-05  -7.0038788867192859e-04  7.3094961698844411e-03  -4.6910673025863624e-02  2.2375897274754136e-01  -7.9794633234459400e-01  1.8822989048759706e+00  -1.2066520559892036e+00  -9.7574640261287602e+00  2.5458675308053262e+01  5.8808074602143499e+01  2.1121337332738261e+01  -9.4262211807839780e+00  -4.6610975782228103e-01  1.4429103657726139e+00  -6.4794179224026904e-01  1.8647668299434664e-01  -3.9828315491791846e-02  6.3296787636097068e-03  -6.3119051866971265e-04  -1.2259102850491538e-05  2.2299340897352499e-05  -5.7024941118822530e-06  8.6635848918405534e-07  -5.9810896804114408e-08  -1.0305474273296763e-08  4.5525857450309720e-09  -8.9122919294031776e-10  9.6435296993706692e-11  1.8360657021580870e-12  -3.4455520072296825e-12  7.9487314059750283e-13  0.0000000000000000e+00  0.0000000000000000e+00  1.5997134886795965e-10  9.1292090127582101e-10  -1.3295709801942644e-08  8.4080407587952624e-08  -2.8598252578377650e-07  -3.1547928635067992e-07  1.2337252093204443e-05  -9.8189111847296281e-05  4.5670176854452051e-04  -7.7139469189210818e-04  -8.6053137851631288e-03  1.0711457420950396e-01  -7.3075558595741641e-01  3.5712413799736358e+00  -1.2496186923696390e+01  2.5458675308053259e+01  1.0520310879815487e+01  -2.0026293332546655e+02  -1.8713452035021362e+02  1.6338063469856806e+01  2.0494645691452376e+01  -1.0682701410135039e+01  3.1202005034416365e+00  -6.4794179224027026e-01  9.6518354537398612e-02  -8.0668089315664524e-03  -6.1125943299530298e-04  3.9857126950212723e-04  -8.7559894174091480e-05  1.1263906274599054e-05  -3.5030533601025454e-07  -2.4486703090154420e-07  7.4412538949628778e-08  -1.2021611166791279e-08  8.8263591564467351e-10  1.3444059654541031e-10  -6.1762924756725113e-11  1.1911776299553639e-11  -1.0641075450648361e-12  0.0000000000000000e+00  0.0000000000000000e+00  1.4696199705788040e-10  -1.0809223217685147e-09  3.9237623253719542e-09  2.5304450964702067e-09  -1.5244271639148247e-07  1.2252705639843560e-06  -5.4456204540858484e-06  5.7910960521021285e-06  1.3469318397641325e-04  -1.3807312903426220e-03  7.5745751260161169e-03  -1.9641844973917435e-02  -8.9444062326412541e-02  1.5412286205850805e+00  -1.1548738378427053e+01  5.8808074602143549e+01  -2.0026293332546661e+02  2.8449342199543946e+02  1.0384638081304320e+03  2.3706472260182903e+02  -1.8027895372767730e+02  5.3835999932100002e+01  -1.0682701410134998e+01  1.4429103657726094e+00  -8.7377168792889259e-02  -1.7451349870403605e-02  6.9553248752973707e-03  -1.2849908274048898e-03  1.2812152901872407e-04  4.6772908739125394e-06  -4.9671066322693876e-06  1.1356204006711968e-06  -1.4369146566886952e-07  2.9651729825723858e-09  3.5491890289689192e-09  -1.0019831365856241e-09  1.5058734532525735e-10  -8.2587078387575747e-12  -2.4407832720826050e-12  0.0000000000000000e+00  0.0000000000000000e+00  -5.7147790116714314e-11  4.9348378132521149e-11  1.5732694665723135e-09  -1.4961616298703623e-08  7.4827543705100662e-08  -1.3727762946416487e-07  -1.3433778420970829e-06  1.6172742824178013e-05  -9.3593018596302283e-05  2.5534332692368035e-04  1.0159532916789507e-03  -1.7831426424314685e-02  1.2162215425828871e-01  -4.4479665636653110e-01  -4.4517798639129796e-01  2.1121337332738261e+01  -1.8713452035021376e+02  1.0384638081304327e+03  -3.3777297506135415e+03  -3.2031286298572877e+03  9.9504595865215265e+02  -1.8027895372767810e+02  2.0494645691452451e+01  -4.6610975782229991e-01  -4.2320571684927150e-01  1.1688156127013019e-01  -1.7257214498871198e-02  1.0068908855313309e-03  2.4116199414418103e-04  -8.9764933632657977e-05  1.5621080848202887e-05  -1.3163898682834559e-06  -1.2779816888790262e-07  7.1614855390997330e-08  -1.442683615974809