<?xml version="1.0"?>
<VTKFile type="UnstructuredGrid"  version="0.1"  >
<UnstructuredGrid>
<Piece  NumberOfPoints="1681" NumberOfCells="3200">
<Points>
<DataArray  type="Float64"  NumberOfComponents="3"  format="ascii">-2 -2 0  -1.9 -2 0  -1.8 -2 0  -1.7 -2 0  -1.6 -2 0  -1.5 -2 0  -1.4 -2 0  -1.3 -2 0  -1.2 -2 0  -1.1 -2 0  -1 -2 0  -0.8999999999999999 -2 0  -0.8 -2 0  -0.7 -2 0  -0.6000000000000001 -2 0  -0.5 -2 0  -0.3999999999999999 -2 0  -0.3 -2 0  -0.2 -2 0  -0.1000000000000001 -2 0  0 -2 0  0.1000000000000001 -2 0  0.2000000000000002 -2 0  0.2999999999999998 -2 0  0.3999999999999999 -2 0  0.5 -2 0  0.6000000000000001 -2 0  0.7000000000000002 -2 0  0.7999999999999998 -2 0  0.8999999999999999 -2 0  1 -2 0  1.1 -2 0  1.2 -2 0  1.3 -2 0  1.4 -2 0  1.5 -2 0  1.6 -2 0  1.7 -2 0  1.8 -2 0  1.9 -2 0  2 -2 0  -2 -1.9 0  -1.9 -1.9 0  -1.8 -1.9 0  -1.7 -1.9 0  -1.6 -1.9 0  -1.5 -1.9 0  -1.4 -1.9 0  -1.3 -1.9 0  -1.2 -1.9 0  -1.1 -1.9 0  -1 -1.9 0  -0.8999999999999999 -1.9 0  -0.8 -1.9 0  -0.7 -1.9 0  -0.6000000000000001 -1.9 0  -0.5 -1.9 0  -0.3999999999999999 -1.9 0  -0.3 -1.9 0  -0.2 -1.9 0  -0.1000000000000001 -1.9 0  0 -1.9 0  0.1000000000000001 -1.9 0  0.2000000000000002 -1.9 0  0.2999999999999998 -1.9 0  0.3999999999999999 -1.9 0  0.5 -1.9 0  0.6000000000000001 -1.9 0  0.7000000000000002 -1.9 0  0.7999999999999998 -1.9 0  0.8999999999999999 -1.9 0  1 -1.9 0  1.1 -1.9 0  1.2 -1.9 0  1.3 -1.9 0  1.4 -1.9 0  1.5 -1.9 0  1.6 -1.9 0  1.7 -1.9 0  1.8 -1.9 0  1.9 -1.9 0  2 -1.9 0  -2 -1.8 0  -1.9 -1.8 0  -1.8 -1.8 0  -1.7 -1.8 0  -1.6 -1.8 0  -1.5 -1.8 0  -1.4 -1.8 0  -1.3 -1.8 0  -1.2 -1.8 0  -1.1 -1.8 0  -1 -1.8 0  -0.8999999999999999 -1.8 0  -0.8 -1.8 0  -0.7 -1.8 0  -0.6000000000000001 -1.8 0  -0.5 -1.8 0  -0.3999999999999999 -1.8 0  -0.3 -1.8 0  -0.2 -1.8 0  -0.1000000000000001 -1.8 0  0 -1.8 0  0.1000000000000001 -1.8 0  0.2000000000000002 -1.8 0  0.2999999999999998 -1.8 0  0.3999999999999999 -1.8 0  0.5 -1.8 0  0.6000000000000001 -1.8 0  0.7000000000000002 -1.8 0  0.7999999999999998 -1.8 0  0.8999999999999999 -1.8 0  1 -1.8 0  1.1 -1.8 0  1.2 -1.8 0  1.3 -1.8 0  1.4 -1.8 0  1.5 -1.8 0  1.6 -1.8 0  1.7 -1.8 0  1.8 -1.8 0  1.9 -1.8 0  2 -1.8 0  -2 -1.7 0  -1.9 -1.7 0  -1.8 -1.7 0  -1.7 -1.7 0  -1.6 -1.7 0  -1.5 -1.7 0  -1.4 -1.7 0  -1.3 -1.7 0  -1.2 -1.7 0  -1.1 -1.7 0  -1 -1.7 0  -0.8999999999999999 -1.7 0  -0.8 -1.7 0  -0.7 -1.7 0  -0.6000000000000001 -1.7 0  -0.5 -1.7 0  -0.3999999999999999 -1.7 0  -0.3 -1.7 0  -0.2 -1.7 0  -0.1000000000000001 -1.7 0  0 -1.7 0  0.1000000000000001 -1.7 0  0.2000000000000002 -1.7 0  0.2999999999999998 -1.7 0  0.3999999999999999 -1.7 0  0.5 -1.7 0  0.6000000000000001 -1.7 0  0.7000000000000002 -1.7 0  0.7999999999999998 -1.7 0  0.8999999999999999 -1.7 0  1 -1.7 0  1.1 -1.7 0  1.2 -1.7 0  1.3 -1.7 0  1.4 -1.7 0  1.5 -1.7 0  1.6 -1.7 0  1.7 -1.7 0  1.8 -1.7 0  1.9 -1.7 0  2 -1.7 0  -2 -1.6 0  -1.9 -1.6 0  -1.8 -1.6 0  -1.7 -1.6 0  -1.6 -1.6 0  -1.5 -1.6 0  -1.4 -1.6 0  -1.3 -1.6 0  -1.2 -1.6 0  -1.1 -1.6 0  -1 -1.6 0  -0.8999999999999999 -1.6 0  -0.8 -1.6 0  -0.7 -1.6 0  -0.6000000000000001 -1.6 0  -0.5 -1.6 0  -0.3999999999999999 -1.6 0  -0.3 -1.6 0  -0.2 -1.6 0  -0.1000000000000001 -1.6 0  0 -1.6 0  0.1000000000000001 -1.6 0  0.2000000000000002 -1.6 0  0.2999999999999998 -1.6 0  0.3999999999999999 -1.6 0  0.5 -1.6 0  0.6000000000000001 -1.6 0  0.7000000000000002 -1.6 0  0.7999999999999998 -1.6 0  0.8999999999999999 -1.6 0  1 -1.6 0  1.1 -1.6 0  1.2 -1.6 0  1.3 -1.6 0  1.4 -1.6 0  1.5 -1.6 0  1.6 -1.6 0  1.7 -1.6 0  1.8 -1.6 0  1.9 -1.6 0  2 -1.6 0  -2 -1.5 0  -1.9 -1.5 0  -1.8 -1.5 0  -1.7 -1.5 0  -1.6 -1.5 0  -1.5 -1.5 0  -1.4 -1.5 0  -1.3 -1.5 0  -1.2 -1.5 0  -1.1 -1.5 0  -1 -1.5 0  -0.8999999999999999 -1.5 0  -0.8 -1.5 0  -0.7 -1.5 0  -0.6000000000000001 -1.5 0  -0.5 -1.5 0  -0.3999999999999999 -1.5 0  -0.3 -1.5 0  -0.2 -1.5 0  -0.1000000000000001 -1.5 0  0 -1.5 0  0.1000000000000001 -1.5 0  0.2000000000000002 -1.5 0  0.2999999999999998 -1.5 0  0.3999999999999999 -1.5 0  0.5 -1.5 0  0.6000000000000001 -1.5 0  0.7000000000000002 -1.5 0  0.7999999999999998 -1.5 0  0.8999999999999999 -1.5 0  1 -1.5 0  1.1 -1.5 0  1.2 -1.5 0  1.3 -1.5 0  1.4 -1.5 0  1.5 -1.5 0  1.6 -1.5 0  1.7 -1.5 0  1.8 -1.5 0  1.9 -1.5 0  2 -1.5 0  -2 -1.4 0  -1.9 -1.4 0  -1.8 -1.4 0  -1.7 -1.4 0  -1.6 -1.4 0  -1.5 -1.4 0  -1.4 -1.4 0  -1.3 -1.4 0  -1.2 -1.4 0  -1.1 -1.4 0  -1 -1.4 0  -0.8999999999999999 -1.4 0  -0.8 -1.4 0  -0.7 -1.4 0  -0.6000000000000001 -1.4 0  -0.5 -1.4 0  -0.3999999999999999 -1.4 0  -0.3 -1.4 0  -0.2 -1.4 0  -0.1000000000000001 -1.4 0  0 -1.4 0  0.1000000000000001 -1.4 0  0.2000000000000002 -1.4 0  0.2999999999999998 -1.4 0  0.3999999999999999 -1.4 0  0.5 -1.4 0  0.6000000000000001 -1.4 0  0.7000000000000002 -1.4 0  0.7999999999999998 -1.4 0  0.8999999999999999 -1.4 0  1 -1.4 0  1.1 -1.4 0  1.2 -1.4 0  1.3 -1.4 0  1.4 -1.4 0  1.5 -1.4 0  1.6 -1.4 0  1.7 -1.4 0  1.8 -1.4 0  1.9 -1.4 0  2 -1.4 0  -2 -1.3 0  -1.9 -1.3 0  -1.8 -1.3 0  -1.7 -1.3 0  -1.6 -1.3 0  -1.5 -1.3 0  -1.4 -1.3 0  -1.3 -1.3 0  -1.2 -1.3 0  -1.1 -1.3 0  -1 -1.3 0  -0.8999999999999999 -1.3 0  -0.8 -1.3 0  -0.7 -1.3 0  -0.6000000000000001 -1.3 0  -0.5 -1.3 0  -0.3999999999999999 -1.3 0  -0.3 -1.3 0  -0.2 -1.3 0  -0.1000000000000001 -1.3 0  0 -1.3 0  0.1000000000000001 -1.3 0  0.2000000000000002 -1.3 0  0.2999999999999998 -1.3 0  0.3999999999999999 -1.3 0  0.5 -1.3 0  0.6000000000000001 -1.3 0  0.7000000000000002 -1.3 0  0.7999999999999998 -1.3 0  0.8999999999999999 -1.3 0  1 -1.3 0  1.1 -1.3 0  1.2 -1.3 0  1.3 -1.3 0  1.4 -1.3 0  1.5 -1.3 0  1.6 -1.3 0  1.7 -1.3 0  1.8 -1.3 0  1.9 -1.3 0  2 -1.3 0  -2 -1.2 0  -1.9 -1.2 0  -1.8 -1.2 0  -1.7 -1.2 0  -1.6 -1.2 0  -1.5 -1.2 0  -1.4 -1.2 0  -1.3 -1.2 0  -1.2 -1.2 0  -1.1 -1.2 0  -1 -1.2 0  -0.8999999999999999 -1.2 0  -0.8 -1.2 0  -0.7 -1.2 0  -0.6000000000000001 -1.2 0  -0.5 -1.2 0  -0.3999999999999999 -1.2 0  -0.3 -1.2 0  -0.2 -1.2 0  -0.1000000000000001 -1.2 0  0 -1.2 0  0.1000000000000001 -1.2 0  0.2000000000000002 -1.2 0  0.2999999999999998 -1.2 0  0.3999999999999999 -1.2 0  0.5 -1.2 0  0.6000000000000001 -1.2 0  0.7000000000000002 -1.2 0  0.7999999999999998 -1.2 0  0.8999999999999999 -1.2 0  1 -1.2 0  1.1 -1.2 0  1.2 -1.2 0  1.3 -1.2 0  1.4 -1.2 0  1.5 -1.2 0  1.6 -1.2 0  1.7 -1.2 0  1.8 -1.2 0  1.9 -1.2 0  2 -1.2 0  -2 -1.1 0  -1.9 -1.1 0  -1.8 -1.1 0  -1.7 -1.1 0  -1.6 -1.1 0  -1.5 -1.1 0  -1.4 -1.1 0  -1.3 -1.1 0  -1.2 -1.1 0  -1.1 -1.1 0  -1 -1.1 0  -0.8999999999999999 -1.1 0  -0.8 -1.1 0  -0.7 -1.1 0  -0.6000000000000001 -1.1 0  -0.5 -1.1 0  -0.3999999999999999 -1.1 0  -0.3 -1.1 0  -0.2 -1.1 0  -0.1000000000000001 -1.1 0  0 -1.1 0  0.1000000000000001 -1.1 0  0.2000000000000002 -1.1 0  0.2999999999999998 -1.1 0  0.3999999999999999 -1.1 0  0.5 -1.1 0  0.6000000000000001 -1.1 0  0.7000000000000002 -1.1 0  0.7999999999999998 -1.1 0  0.8999999999999999 -1.1 0  1 -1.1 0  1.1 -1.1 0  1.2 -1.1 0  1.3 -1.1 0  1.4 -1.1 0  1.5 -1.1 0  1.6 -1.1 0  1.7 -1.1 0  1.8 -1.1 0  1.9 -1.1 0  2 -1.1 0  -2 -1 0  -1.9 -1 0  -1.8 -1 0  -1.7 -1 0  -1.6 -1 0  -1.5 -1 0  -1.4 -1 0  -1.3 -1 0  -1.2 -1 0  -1.1 -1 0  -1 -1 0  -0.8999999999999999 -1 0  -0.8 -1 0  -0.7 -1 0  -0.6000000000000001 -1 0  -0.5 -1 0  -0.3999999999999999 -1 0  -0.3 -1 0  -0.2 -1 0  -0.1000000000000001 -1 0  0 -1 0  0.1000000000000001 -1 0  0.2000000000000002 -1 0  0.2999999999999998 -1 0  0.3999999999999999 -1 0  0.5 -1 0  0.6000000000000001 -1 0  0.7000000000000002 -1 0  0.7999999999999998 -1 0  0.8999999999999999 -1 0  1 -1 0  1.1 -1 0  1.2 -1 0  1.3 -1 0  1.4 -1 0  1.5 -1 0  1.6 -1 0  1.7 -1 0  1.8 -1 0  1.9 -1 0  2 -1 0  -2 -0.8999999999999999 0  -1.9 -0.8999999999999999 0  -1.8 -0.8999999999999999 0  -1.7 -0.8999999999999999 0  -1.6 -0.8999999999999999 0  -1.5 -0.8999999999999999 0  -1.4 -0.8999999999999999 0  -1.3 -0.8999999999999999 0  -1.2 -0.8999999999999999 0  -1.1 -0.8999999999999999 0  -1 -0.8999999999999999 0  -0.8999999999999999 -0.8999999999999999 0  -0.8 -0.8999999999999999 0  -0.7 -0.8999999999999999 0  -0.6000000000000001 -0.8999999999999999 0  -0.5 -0.8999999999999999 0  -0.3999999999999999 -0.8999999999999999 0  -0.3 -0.8999999999999999 0  -0.2 -0.8999999999999999 0  -0.1000000000000001 -0.8999999999999999 0  0 -0.8999999999999999 0  0.1000000000000001 -0.8999999999999999 0  0.2000000000000002 -0.8999999999999999 0  0.2999999999999998 -0.8999999999999999 0  0.3999999999999999 -0.8999999999999999 0  0.5 -0.8999999999999999 0  0.6000000000000001 -0.8999999999999999 0  0.7000000000000002 -0.8999999999999999 0  0.7999999999999998 -0.8999999999999999 0  0.8999999999999999 -0.8999999999999999 0  1 -0.8999999999999999 0  1.1 -0.8999999999999999 0  1.2 -0.8999999999999999 0  1.3 -0.8999999999999999 0  1.4 -0.8999999999999999 0  1.5 -0.8999999999999999 0  1.6 -0.8999999999999999 0  1.7 -0.8999999999999999 0  1.8 -0.8999999999999999 0  1.9 -0.8999999999999999 0  2 -0.8999999999999999 0  -2 -0.8 0  -1.9 -0.8 0  -1.8 -0.8 0  -1.7 -0.8 0  -1.6 -0.8 0  -1.5 -0.8 0  -1.4 -0.8 0  -1.3 -0.8 0  -1.2 -0.8 0  -1.1 -0.8 0  -1 -0.8 0  -0.8999999999999999 -0.8 0  -0.8 -0.8 0  -0.7 -0.8 0  -0.6000000000000001 -0.8 0  -0.5 -0.8 0  -0.3999999999999999 -0.8 0  -0.3 -0.8 0  -0.2 -0.8 0  -0.1000000000000001 -0.8 0  0 -0.8 0  0.1000000000000001 -0.8 0  0.2000000000000002 -0.8 0  0.2999999999999998 -0.8 0  0.3999999999999999 -0.8 0  0.5 -0.8 0  0.6000000000000001 -0.8 0  0.7000000000000002 -0.8 0  0.7999999999999998 -0.8 0  0.8999999999999999 -0.8 0  1 -0.8 0  1.1 -0.8 0  1.2 -0.8 0  1.3 -0.8 0  1.4 -0.8 0  1.5 -0.8 0  1.6 -0.8 0  1.7 -0.8 0  1.8 -0.8 0  1.9 -0.8 0  2 -0.8 0  -2 -0.7 0  -1.9 -0.7 0  -1.8 -0.7 0  -1.7 -0.7 0  -1.6 -0.7 0  -1.5 -0.7 0  -1.4 -0.7 0  -1.3 -0.7 0  -1.2 -0.7 0  -1.1 -0.7 0  -1 -0.7 0  -0.8999999999999999 -0.7 0  -0.8 -0.7 0  -0.7 -0.7 0  -0.6000000000000001 -0.7 0  -0.5 -0.7 0  -0.3999999999999999 -0.7 0  -0.3 -0.7 0  -0.2 -0.7 0  -0.1000000000000001 -0.7 0  0 -0.7 0  0.1000000000000001 -0.7 0  0.2000000000000002 -0.7 0  0.2999999999999998 -0.7 0  0.3999999999999999 -0.7 0  0.5 -0.7 0  0.600000000000000
[...]
<PointData  Scalars="f_1726"> 
<DataArray  type="Float64"  Name="f_1726"  format="ascii">0.0000000000000000e+00  0.0000000000000000e+00  0.0000000000000000e+00  0.0000000000000000e+00  0.0000000000000000e+00  0.0000000000000000e+00  0.0000000000000000e+00  0.0000000000000000e+00  0.0000000000000000e+00  0.0000000000000000e+00  0.0000000000000000e+00  0.0000000000000000e+00  0.0000000000000000e+00  0.0000000000000000e+00  0.0000000000000000e+00  0.0000000000000000e+00  0.0000000000000000e+00  0.0000000000000000e+00  0.0000000000000000e+00  0.0000000000000000e+00  0.0000000000000000e+00  0.0000000000000000e+00  0.0000000000000000e+00  0.0000000000000000e+00  0.0000000000000000e+00  0.0000000000000000e+00  0.0000000000000000e+00  0.0000000000000000e+00  0.0000000000000000e+00  0.0000000000000000e+00  0.0000000000000000e+00  0.0000000000000000e+00  0.0000000000000000e+00  0.0000000000000000e+00  0.0000000000000000e+00  0.0000000000000000e+00  0.0000000000000000e+00  0.0000000000000000e+00  0.0000000000000000e+00  0.0000000000000000e+00  0.0000000000000000e+00  0.0000000000000000e+00  -7.2602517725098019e-14  -8.4608013636631011e-14  5.5598332380989634e-13  -1.3397621712106030e-13  -2.8158613380343038e-12  1.5171038422211013e-12  1.3854841975064297e-11  1.9061856467768769e-12  -5.7508933330142893e-11  -1.1475139979505823e-10  -1.0114806118625771e-10  -3.4862847293110059e-11  9.4351465767558644e-12  9.5587895202925107e-12  -9.0730497961599328e-13  -1.8321259057324443e-12  3.0695149827038834e-13  2.8198927811103777e-13  -1.0965463455362881e-13  -2.0033557347272759e-14  2.3874002860390659e-14  -4.6833516602866708e-15  -2.0417994071430652e-15  1.5251950000289156e-15  -3.3483558303162997e-16  -7.6071802250665330e-17  8.4026711062123698e-17  -3.0141530767227384e-17  3.5377012371707981e-18  2.2647666962966292e-18  -1.6879783774475000e-18  6.3257593641978317e-19  -1.3989168120165016e-19  1.1582308239300994e-21  1.6402173195626096e-20  -9.8665335001936573e-21  4.0143895538316675e-21  -1.3307313671464833e-21  4.2183314579480012e-22  0.0000000000000000e+00  0.0000000000000000e+00  -8.4608013636631037e-14  6.0846695493266498e-13  -5.4129128473075718e-13  -2.6655386916927782e-12  5.5975886535205584e-12  1.0461776598507979e-11  -3.0140410032865000e-11  -5.8876025959842528e-11  8.7788357637198968e-11  3.7625982279622453e-10  4.9120382331432813e-10  2.8768424552052353e-10  2.3268434450142757e-11  -5.5768542426751380e-11  -1.2676312059467047e-11  1.0353865466809638e-11  1.7517039171824676e-12  -2.0740634402890060e-12  9.4689197235523824e-14  3.2514079300889865e-13  -1.0957398551088100e-13  -1.5846729822703905e-14  2.2856202739327047e-14  -6.6112923249816288e-15  -6.1590390447534231e-16  1.2409710536497552e-15  -4.9489788645576825e-16  6.8834411189253688e-17  3.2759309511540097e-17  -2.6386800648876350e-17  9.9405932741430617e-18  -2.1223701596749767e-18  -3.9631719114670854e-20  2.7985771426892867e-19  -1.5876553271746942e-19  6.2068320374689110e-20  -1.9627151609237196e-20  5.3316199128302131e-21  -1.3307313671464852e-21  0.0000000000000000e+00  0.0000000000000000e+00  5.5598332380989654e-13  -5.4129128473075728e-13  -2.4369706076300733e-12  7.2172279261517411e-12  3.9817508638640226e-12  -4.2816529952090275e-11  2.6567686197026794e-12  2.1388776516248285e-10  8.1227795437985944e-11  -8.7004051356233129e-10  -1.8515754417490617e-09  -1.6412999473086135e-09  -5.3263970066720858e-10  1.7501021392501657e-10  1.4256204101405704e-10  -2.5332617018618591e-11  -2.5511681142622406e-11  7.5288777218721955e-12  3.0187744453291286e-12  -1.9868784137829753e-12  8.0935837962607941e-14  2.8894556178494655e-13  -1.1851011087795562e-13  3.5230253554058989e-15  1.6033044821452693e-14  -7.7739144327163401e-15  1.4320571198163062e-15  3.6373425051404811e-16  -3.8060382605887129e-16  1.5423451540948541e-16  -3.5273690610768887e-17  4.0551706881252898e-19  4.0660008312054616e-18  -2.4111186188978267e-18  9.5726938058466338e-19  -3.0564283136420756e-19  8.2824693826651317e-20  -1.9627151609237114e-20  4.0143895538316569e-21  0.0000000000000000e+00  0.0000000000000000e+00  -1.3397621712106000e-13  -2.6655386916927786e-12  7.2172279261517435e-12  1.3544760794066969e-12  -4.3854849737947325e-11  4.9938089621899277e-11  1.9141234052041747e-10  -3.4909407127809488e-10  -9.6448974557669114e-10  1.0486304301285283e-09  5.5719532569490097e-09  7.5101197598974344e-09  4.3023706571027535e-09  1.9850184513858109e-10  -8.5440691743816300e-10  -1.2082768496578418e-10  1.6133268405212654e-10  4.8553939136539087e-12  -2.8708206637829815e-11  5.9785364234046304e-12  2.9437208204021909e-12  -1.9225956847465397e-12  2.5796333424706004e-13  1.8503912799285599e-13  -1.1808936443744131e-13  2.7756530714341283e-14  3.1235346347171555e-15  -5.3670634960028704e-15  2.3882167906342826e-15  -5.9031551579623401e-16  2.4927894303716312e-17  5.8438522732309542e-17  -3.6777566644554727e-17  1.4896560989039542e-17  -4.7980205808762435e-18  1.3049948134929969e-18  -3.0564283136420905e-19  6.2068320374689218e-20  -9.8665335001937055e-21  0.0000000000000000e+00  0.0000000000000000e+00  -2.8158613380343119e-12  5.5975886535205657e-12  3.9817508638640145e-12  -4.3854849737947325e-11  6.5224563316544455e-11  1.4429053898482259e-10  -5.5116341417063387e-10  -3.0639424564195078e-10  2.9734153165719056e-09  2.0472353910323433e-09  -1.2109964665001629e-08  -2.7989607199742590e-08  -2.4946471752813716e-08  -7.4518333211686513e-09  3.0318019949707684e-09  1.8994830705236433e-09  -5.4874054253887780e-10  -2.9250563008877362e-10  1.4357837709508712e-10  1.5457197480495629e-11  -2.7682075608371932e-11  6.8101500537202768e-12  1.6935933756363650e-12  -1.7100820741415375e-12  5.0575517416889533e-13  6.6375236351157976e-15  -7.3283858810906315e-14  3.6636346906816415e-14  -9.8221061294801758e-15  6.9566528912215271e-16  8.2818162794627388e-16  -5.5999324449166223e-16  2.3192420925981276e-16  -7.5372344202133719e-17  2.0545324460941212e-17  -4.7980205808762343e-18  9.5726938058466569e-19  -1.5876553271746928e-19  1.6402173195626114e-20  0.0000000000000000e+00  0.0000000000000000e+00  1.5171038422211100e-12  1.0461776598508000e-11  -4.2816529952090333e-11  4.9938089621899361e-11  1.4429053898482259e-10  -5.9537404071559662e-10  1.6123030904018540e-10  3.1383592304860062e-09  -3.3714511069525849e-09  -1.5330960950217234e-08  1.1151722624921630e-08  8.2006488368715874e-08  1.1483807624600143e-07  6.3974251176595423e-08  3.1250850247504705e-10  -1.2841708848719803e-08  -6.0533864535044992e-10  2.3510374705412676e-09  -2.6340700594962766e-10  -3.3146632589572370e-10  1.3741390140323224e-10  5.6895456347167966e-12  -2.3066952834887935e-11  8.7354581012822597e-12  -5.7851144620881452e-13  -9.5221679358839840e-13  5.5469699888111860e-13  -1.6232088672762969e-13  1.5932120004664697e-14  1.1495574486921148e-14  -8.4996827955651506e-15  3.6107543236970493e-15  -1.1851889611411285e-15  3.2379746958272903e-16  -7.5372344202133732e-17  1.4896560989039530e-17  -2.4111186188978352e-18  2.7985771426892915e-19  1.1582308239298597e-21  0.0000000000000000e+00  0.0000000000000000e+00  1.3854841975064306e-11  -3.0140410032865071e-11  2.6567686197026968e-12  1.9141234052041783e-10  -5.5116341417063439e-10  1.6123030904018615e-10  2.9857541206943976e-09  -5.9592686497161011e-09  -9.4639878939314116e-09  3.9062354088369772e-08  4.3428900531307669e-08  -1.6535040724181338e-07  -4.2444003504802584e-07  -3.8051582518792497e-07  -1.0194338390015184e-07  5.1884949676007583e-08  2.3672601633648402e-08  -1.0449004582521935e-08  -2.5776605891802375e-09  2.3066322419169133e-09  -2.4521790741873798e-10  -2.7571381367880444e-10  1.4278206992894262e-10  -1.9774045733566562e-11  -1.1378892629343160e-11  8.2477713879954688e-12  -2.6618650277816895e-12  3.3281281311380192e-13  1.5481175504479212e-13  -1.2848032790972964e-13  5.6210848918685303e-14  -1.8658605156795639e-14  5.1103679642815590e-15  -1.1851889611411303e-15  2.3192420925981330e-16  -3.6777566644554813e-17  4.0660008312054931e-18  -3.9631719114674935e-20  -1.3989168120164951e-19  0.0000000000000000e+00  0.0000000000000000e+00  1.9061856467768684e-12  -5.8876025959842489e-11  2.1388776516248313e-10  -3.4909407127809550e-10  -3.0639424564195109e-10  3.1383592304860087e-09  -5.9592686497161077e-09  -6.4292467970228108e-09  4.5785541526802943e-08  -1.8470413902374681e-08  -2.3584878756511098e-07  9.0001654249438196e-08  1.2035256718365815e-06  1.7662439359419412e-06  9.4919904877884731e-07  -4.2335003023989898e-08  -1.8840433120460452e-07  1.1111899864566928e-08  3.1032104662195578e-08  -8.5232902209299222e-09  -2.5258763224599914e-09  2.1790175923324901e-09  -4.6984852315204008e-10  -1.1476457826252555e-10  1.1947127730010972e-10  -4.3242131972782101e-11  6.5902037824670738e-12  1.9891103306285791e-12  -1.9316555011667174e-12  8.7492211493274250e-13  -2.9414959777876690e-13  8.0788597362356551e-14  -1.8658605156795563e-14  3.6107543236970390e-15  -5.5999324449166066e-16  5.8438522732309283e-17  4.0551706881255041e-19  -2.1223701596749705e-18  6.3257593641978143e-19  0.0000000000000000e+00  0.0000000000000000e+00  -5.7508933330142861e-11  8.7788357637198968e-11  8.1227795437985621e-11  -9.6448974557669155e-10  2.9734153165719097e-09  -3.3714511069525870e-09  -9.4639878939314249e-09  4.5785541526802989e-08  -4.0901733104463226e-08  -2.0124082524745956e-07  4.6417738665794048e-07  8.4256882409988983e-07  -2.1897874666335297e-06  -6.4649842502526057e-06  -5.8329807587363111e-06  -1.3438975999116705e-06  8.7631499708854667e-07  2.5844799660028402e-07  -1.7958539131589042e-07  -5.2802669565244994e-09  2.9973580924897238e-08  -9.5308368256763764e-09  -6.7216253723791606e-10  1.6623604050111306e-09  -6.9386569098514971e-10  1.2596358369120047e-10  2.3556089225850397e-11  -2.8831785015931681e-11  1.3613721008206746e-11  -4.6446693985219489e-12  1.2796510821826630e-12  -2.9414959777876831e-13  5.6210848918685423e-14  -8.4996827955651995e-15  8.2818162794628443e-16  2.4927894303714251e-17  -3.5273690610768659e-17  9.9405932741430032e-18  -1.6879783774474946e-18  0.0000000000000000e+00  0.0000000000000000e+00  -1.1475139979505821e-10  3.7625982279622448e-10  -8.7004051356233109e-10  1.0486304301285304e-09  2.0472353910323429e-09  -1.5330960950217257e-08  3.9062354088369825e-08  -1.8470413902374700e-08  -2.0124082524745972e-07  5.5833110381441082e-07  2.5156605582610097e-07  -3.4596291015442363e-06  2.1707985526062967e-08  1.7576763957274122e-05  2.7381545461898455e-05  1.4025391526826594e-05  -1.4801447766096272e-06  -2.6493340293660617e-06  4.8995034002784201e-07  3.3702502588489871e-07  -1.7224009840305215e-07  8.9747411130405482e-09  2.1613075915357960e-08  -1.0941891306830884e-08  2.3462064344009085e-09  2.3484095770039139e-10  -4.2601895673951708e-10  2.1170691156390569e-10  -7.3479536649698729e-11  2.0315934267505653e-11  -4.6446693985219424e-12  8.7492211493274513e-13  -1.2848032790972956e-13  1.1495574486921169e-14  6.9566528912215231e-16  -5.9031551579623342e-16  1.5423451540948588e-16  -2.6386800648876341e-17  2.2647666962966350e-18  0.0000000000000000e+00  0.0000000000000000e+00  -1.0114806118625760e-10  4.9120382331432782e-10  -1.8515754417490609e-09  5.5719532569490064e-09  -1.2109964665001637e-08  1.1151722624921644e-08  4.3428900531307689e-08  -2.3584878756511124e-07  4.6417738665794074e-07  2.5156605582610144e-07  -3.4737155695622943e-06  4.3951676588068752e-06  1.5363072506261606e-05  -2.7447128994016613e-05  -9.9066413948944637e-05  -9.0011751929693114e-05  -1.6511794006456028e-05  1.4534022499312326e-05  1.9494014850808541e-06  -2.7307259551459630e-06  4.6273933396367631e-07  2.4583836775328640e-07  -1.6800908972342375e-07  4.2787762604504011e-08  1.2794141365471455e-09  -6.2032869370832520e-09  3.2890608293174937e-09  -1.1651174126187699e-09  3.2344187229624462e-10  -7.3479536649698768e-11  1.3613721008206751e-11  -1.9316555011667270e-12  1.5481175504479318e-13  1.5932120004664454e-14  -9.8221061294801317e-15  2.3882167906342719e-15  -3.8060382605887060e-16  3.2759309511539838e-17  3.5377012371708297e-18  0.0000000000000000e+00  0.0000000000000000e+00  -3.4862847293110020e-11  2.8768424552052322e-10  -1.6412999473086120e-09  7.5101197598974328e-09  -2.7989607199742586e-08  8.2006488368715927e-08  -1.6535040724181351e-07  9.0001654249438487e-08  8.4256882409989057e-07  -3.4596291015442393e-06  4.3951676588068743e-06  1.1686144775518898e-05  -4.6662388560077920e-05  -2.2960511984308211e-05  2.5436919824348115e-04  4.2934658251204781e-04  2.0553042324685504e-04  -3.7688584775984291e-05  -3.4214770932258158e-05  1.1982875267293257e-05  1.9320126266094679e-06  -2.4656281423319255e-06  7.6477475002221054e-07  -2.3522649612183122e-08  -8.8315793044208818e-08  5.1015434405277806e-08  -1.8526278198428915e-08  5.1671872266008879e-09  -1.1651174126187720e-09  2.1170691156390623e-10  -2.8831785015931772e-11  1.9891103306286005e-12  3.3281281311379884e-13  -1.6232088672762938e-13  3.6636346906816371e-14  -5.3670634960028633e-15  3.6373425051404925e-16  6.8834411189253466e-17  -3.0141530767227353e-17  0.0000000000000000e+00  0.0000000000000000e+00  9.4351465767558773e-12  2.3268434450142644e-11  -5.3263970066720775e-10  4.3023706571027469e-09  -2.4946471752813692e-08  1.1483807624600141e-07  -4.2444003504802595e-07  1.2035256718365817e-06  -2.1897874666335322e-06  2.1707985526064235e-08  1.5363072506261623e-05  -4.6662388560077940e-05  1.3952918091852528e-05  2.6367827564122473e-04  -3.0546455680298791e-04  -1.5310918110386180e-03  -1.4021668477911494e-03  -1.7162441360136214e-04  2.3336742945930902e-04  -8.4624121865203717e-06  -3.3112978567019961e-05  1.3345811025148136e-05  -1.1728787693394175e-06  -1.2111223464124730e-06  7.8908706337505324e-07  -2.9561859360950043e-07  8.2910160538697513e-08  -1.8526278198428842e-08  3.2890608293174862e-09  -4.2601895673951563e-10  2.3556089225850252e-11  6.5902037824670940e-12  -2.6618650277816806e-12  5.5469699888111668e-13  -7.3283858810905898e-14  3.1235346347170980e-15  1.4320571198163167e-15  -4.9489788645576825e-16  8.4026711062123698e-17  0.0000000000000000e+00  0.0000000000000000e+00  9.5587895202925140e-12  -5.5768542426751412e-11  1.7501021392501673e-10  1.9850184513858027e-10  -7.4518333211686447e-09  6.3974251176595383e-08  -3.8051582518792492e-07  1.7662439359419412e-06  -6.4649842502526074e-06  1.7576763957274136e-05  -2.7447128994016643e-05  -2.2960511984308282e-05  2.6367827564122495e-04  -5.1808882443508161e-04  -7.5946451248760829e-04  3.6117371837708712e-03  6.8524638944747647e-03  2.9572947756806032e-03  -8.5347158140210893e-04  -3.5478010073640643e-04  2.2427122485328197e-04  -3.3485483666094414e-05  -1.5478516030073950e-05  1.2145327233965749e-05  -4.7385784820153918e-06  1.3379359803859772e-06  -2.9561859360950207e-07  5.1015434405277972e-08  -6.2032869370832966e-09  2.3484095770039956e-10  1.2596358369119882e-10  -4.3242131972781991e-11  8.2477713879954251e-12  -9.5221679358839436e-13  6.6375236351153811e-15  2.7756530714341267e-14  -7.7739144327163527e-15  1.2409710536497521e-15  -7.6071802250665071e-17  0.0000000000000000e+00  0.0000000000000000e+00  -9.0730497961599702e-13  -1.2676312059467044e-11  1.4256204101405711e-10  -8.5440691743816351e-10  3.0318019949707733e-09  3.1250850247502441e-10  -1.0194338390015172e-07  9.4919904877884636e-07  -5.8329807587363094e-06  2.7381545461898455e-05  -9.9066413948944678e-05  2.5436919824348142e-04  -3.0546455680298808e-04  -7.5946451248760927e-04  4.1185759869328247e-03  -2.3153124549987201e-03  -2.3977564270346051e-02  -2.2159609039221723e-02  -8.5420327381620614e-04  3.4726420261125849e-03  -8.1204309260842432e-04  -1.6765847800495769e-04  1.8519849801542114e-04  -7.6422191850629968e-05  2.1758372545326874e-05  -4.7385784820153850e-06  7.8908706337505525e-07  -8.8315793044208739e-08  1.2794141365471414e-09  2.3462064344009097e-09  -6.9386569098514940e-10  1.1947127730011008e-10  -1.1378892629343162e-11  -5.7851144620881310e-13  5.0575517416889523e-13  -1.1808936443744121e-13  1.6033044821452728e-14  -6.1590390447534182e-16  -3.3483558303162962e-16  0.0000000000000000e+00  0.0000000000000000e+00  -1.8321259057324467e-12  1.0353865466809659e-11  -2.5332617018618705e-11  -1.2082768496578374e-10  1.8994830705236429e-09  -1.2841708848719808e-08  5.1884949676007636e-08  -4.2335003023990156e-08  -1.3438975999116692e-06  1.4025391526826599e-05  -9.0011751929693168e-05  4.2934658251204798e-04  -1.5310918110386198e-03  3.6117371837708734e-03  -2.3153124549987170e-03  -1.8722528898670335e-02  4.8849863335443076e-02  1.1284037258712036e-01  4.0527420601482678e-02  -1.8086943286687716e-02  -8.9436695717362655e-04  2.7686426461862989e-03  -1.2432645303523265e-03  3.5780968056256415e-04  -7.6422191850629981e-05  1.2145327233965753e-05  -1.2111223464124793e-06  -2.3522649612182186e-08  4.2787762604503826e-08  -1.0941891306830839e-08  1.6623604050111215e-09  -1.1476457826252441e-10  -1.9774045733566756e-11  8.7354581012822969e-12  -1.7100820741415419e-12  1.8503912799285635e-13  3.5230253554058725e-15  -6.6112923249816201e-15  1.5251950000289156e-15  0.0000000000000000e+00  0.0000000000000000e+00  3.0695149827038955e-13  1.7517039171824648e-12  -2.5511681142622422e-11  1.6133268405212672e-10  -5.4874054253887893e-10  -6.0533864535044671e-10  2.3672601633648409e-08  -1.8840433120460468e-07  8.7631499708854794e-07  -1.4801447766096336e-06  -1.6511794006456011e-05  2.0553042324685512e-04  -1.4021668477911503e-03  6.8524638944747708e-03  -2.3977564270346072e-02  4.8849863335443097e-02  2.0186272164867763e-02  -3.8426260619339536e-01  -3.5907193260601145e-01  3.1349320340160663e-02  3.9324930658080313e-02  -2.0497865565431327e-02  5.9870109629816337e-03  -1.2432645303523287e-03  1.8519849801542165e-04  -1.5478516030074052e-05  -1.1728787693394023e-06  7.6477475002220704e-07  -1.6800908972342356e-07  2.1613075915357927e-08  -6.7216253723791658e-10  -4.6984852315204101e-10  1.4278206992894244e-10  -2.3066952834887925e-11  1.6935933756363590e-12  2.5796333424706105e-13  -1.1851011087795613e-13  2.2856202739327056e-14  -2.0417994071430691e-15  0.0000000000000000e+00  0.0000000000000000e+00  2.8198927811103787e-13  -2.0740634402890080e-12  7.5288777218722100e-12  4.8553939136538683e-12  -2.9250563008877378e-10  2.3510374705412696e-09  -1.0449004582521953e-08  1.1111899864567024e-08  2.5844799660028380e-07  -2.6493340293660629e-06  1.4534022499312346e-05  -3.7688584775984393e-05  -1.7162441360136176e-04  2.9572947756806018e-03  -2.2159609039221734e-02  1.1284037258712047e-01  -3.8426260619339542e-01  5.4588326439410639e-01  1.9925944493242540e+00  4.5487752841134016e-01  -3.4591753676468551e-01  1.0330000313795219e-01  -2.0497865565431258e-02  2.7686426461862920e-03  -1.6765847800495691e-04  -3.3485483666094407e-05  1.3345811025148153e-05  -2.4656281423319175e-06  2.4583836775328524e-07  8.9747411130407980e-09  -9.5308368256763980e-09  2.1790175923324996e-09  -2.7571381367880490e-10  5.6895456347169008e-12  6.8101500537202614e-12  -1.9225956847465341e-12  2.8894556178494629e-13  -1.5846729822703750e-14  -4.6833516602866866e-15  0.0000000000000000e+00  0.0000000000000000e+00  -1.0965463455362899e-13  9.4689197235524455e-14  3.0187744453291298e-12  -2.8708206637829847e-11  1.4357837709508730e-10  -2.6340700594962875e-10  -2.5776605891802346e-09  3.1032104662195578e-08  -1.7958539131589066e-07  4.8995034002784296e-07  1.9494014850808520e-06  -3.4214770932258198e-05  2.3336742945930932e-04  -8.5347158140211012e-04  -8.5420327381619747e-04  4.0527420601482678e-02  -3.5907193260601161e-01  1.9925944493242549e+00  -6.4811556259306720e+00  -6.1461326609117473e+00  1.9092846939002608e+00  -3.4591753676468701e-01  3.9324930658080466e-02  -8.9436695717366168e-04  -8.1204309260841793e-04  2.2427122485328072e-04  -3.3112978567019860e-05  1.9320126266094378e-06  4.6273933396368044e-07  -1.7224009840305271e-07  2.9973580924897284e-08  -2.5258763224600009e-09  -2.4521790741873751e-10  1.3741390140323237e-10  -2.768207560837195