<?xml version="1.0"?>
<VTKFile type="UnstructuredGrid"  version="0.1"  >
<UnstructuredGrid>
<Piece  NumberOfPoints="1681" NumberOfCells="3200">
<Points>
<DataArray  type="Float64"  NumberOfComponents="3"  format="ascii">-2 -2 0  -1.9 -2 0  -1.8 -2 0  -1.7 -2 0  -1.6 -2 0  -1.5 -2 0  -1.4 -2 0  -1.3 -2 0  -1.2 -2 0  -1.1 -2 0  -1 -2 0  -0.8999999999999999 -2 0  -0.8 -2 0  -0.7 -2 0  -0.6000000000000001 -2 0  -0.5 -2 0  -0.3999999999999999 -2 0  -0.3 -2 0  -0.2 -2 0  -0.1000000000000001 -2 0  0 -2 0  0.1000000000000001 -2 0  0.2000000000000002 -2 0  0.2999999999999998 -2 0  0.3999999999999999 -2 0  0.5 -2 0  0.6000000000000001 -2 0  0.7000000000000002 -2 0  0.7999999999999998 -2 0  0.8999999999999999 -2 0  1 -2 0  1.1 -2 0  1.2 -2 0  1.3 -2 0  1.4 -2 0  1.5 -2 0  1.6 -2 0  1.7 -2 0  1.8 -2 0  1.9 -2 0  2 -2 0  -2 -1.9 0  -1.9 -1.9 0  -1.8 -1.9 0  -1.7 -1.9 0  -1.6 -1.9 0  -1.5 -1.9 0  -1.4 -1.9 0  -1.3 -1.9 0  -1.2 -1.9 0  -1.1 -1.9 0  -1 -1.9 0  -0.8999999999999999 -1.9 0  -0.8 -1.9 0  -0.7 -1.9 0  -0.6000000000000001 -1.9 0  -0.5 -1.9 0  -0.3999999999999999 -1.9 0  -0.3 -1.9 0  -0.2 -1.9 0  -0.1000000000000001 -1.9 0  0 -1.9 0  0.1000000000000001 -1.9 0  0.2000000000000002 -1.9 0  0.2999999999999998 -1.9 0  0.3999999999999999 -1.9 0  0.5 -1.9 0  0.6000000000000001 -1.9 0  0.7000000000000002 -1.9 0  0.7999999999999998 -1.9 0  0.8999999999999999 -1.9 0  1 -1.9 0  1.1 -1.9 0  1.2 -1.9 0  1.3 -1.9 0  1.4 -1.9 0  1.5 -1.9 0  1.6 -1.9 0  1.7 -1.9 0  1.8 -1.9 0  1.9 -1.9 0  2 -1.9 0  -2 -1.8 0  -1.9 -1.8 0  -1.8 -1.8 0  -1.7 -1.8 0  -1.6 -1.8 0  -1.5 -1.8 0  -1.4 -1.8 0  -1.3 -1.8 0  -1.2 -1.8 0  -1.1 -1.8 0  -1 -1.8 0  -0.8999999999999999 -1.8 0  -0.8 -1.8 0  -0.7 -1.8 0  -0.6000000000000001 -1.8 0  -0.5 -1.8 0  -0.3999999999999999 -1.8 0  -0.3 -1.8 0  -0.2 -1.8 0  -0.1000000000000001 -1.8 0  0 -1.8 0  0.1000000000000001 -1.8 0  0.2000000000000002 -1.8 0  0.2999999999999998 -1.8 0  0.3999999999999999 -1.8 0  0.5 -1.8 0  0.6000000000000001 -1.8 0  0.7000000000000002 -1.8 0  0.7999999999999998 -1.8 0  0.8999999999999999 -1.8 0  1 -1.8 0  1.1 -1.8 0  1.2 -1.8 0  1.3 -1.8 0  1.4 -1.8 0  1.5 -1.8 0  1.6 -1.8 0  1.7 -1.8 0  1.8 -1.8 0  1.9 -1.8 0  2 -1.8 0  -2 -1.7 0  -1.9 -1.7 0  -1.8 -1.7 0  -1.7 -1.7 0  -1.6 -1.7 0  -1.5 -1.7 0  -1.4 -1.7 0  -1.3 -1.7 0  -1.2 -1.7 0  -1.1 -1.7 0  -1 -1.7 0  -0.8999999999999999 -1.7 0  -0.8 -1.7 0  -0.7 -1.7 0  -0.6000000000000001 -1.7 0  -0.5 -1.7 0  -0.3999999999999999 -1.7 0  -0.3 -1.7 0  -0.2 -1.7 0  -0.1000000000000001 -1.7 0  0 -1.7 0  0.1000000000000001 -1.7 0  0.2000000000000002 -1.7 0  0.2999999999999998 -1.7 0  0.3999999999999999 -1.7 0  0.5 -1.7 0  0.6000000000000001 -1.7 0  0.7000000000000002 -1.7 0  0.7999999999999998 -1.7 0  0.8999999999999999 -1.7 0  1 -1.7 0  1.1 -1.7 0  1.2 -1.7 0  1.3 -1.7 0  1.4 -1.7 0  1.5 -1.7 0  1.6 -1.7 0  1.7 -1.7 0  1.8 -1.7 0  1.9 -1.7 0  2 -1.7 0  -2 -1.6 0  -1.9 -1.6 0  -1.8 -1.6 0  -1.7 -1.6 0  -1.6 -1.6 0  -1.5 -1.6 0  -1.4 -1.6 0  -1.3 -1.6 0  -1.2 -1.6 0  -1.1 -1.6 0  -1 -1.6 0  -0.8999999999999999 -1.6 0  -0.8 -1.6 0  -0.7 -1.6 0  -0.6000000000000001 -1.6 0  -0.5 -1.6 0  -0.3999999999999999 -1.6 0  -0.3 -1.6 0  -0.2 -1.6 0  -0.1000000000000001 -1.6 0  0 -1.6 0  0.1000000000000001 -1.6 0  0.2000000000000002 -1.6 0  0.2999999999999998 -1.6 0  0.3999999999999999 -1.6 0  0.5 -1.6 0  0.6000000000000001 -1.6 0  0.7000000000000002 -1.6 0  0.7999999999999998 -1.6 0  0.8999999999999999 -1.6 0  1 -1.6 0  1.1 -1.6 0  1.2 -1.6 0  1.3 -1.6 0  1.4 -1.6 0  1.5 -1.6 0  1.6 -1.6 0  1.7 -1.6 0  1.8 -1.6 0  1.9 -1.6 0  2 -1.6 0  -2 -1.5 0  -1.9 -1.5 0  -1.8 -1.5 0  -1.7 -1.5 0  -1.6 -1.5 0  -1.5 -1.5 0  -1.4 -1.5 0  -1.3 -1.5 0  -1.2 -1.5 0  -1.1 -1.5 0  -1 -1.5 0  -0.8999999999999999 -1.5 0  -0.8 -1.5 0  -0.7 -1.5 0  -0.6000000000000001 -1.5 0  -0.5 -1.5 0  -0.3999999999999999 -1.5 0  -0.3 -1.5 0  -0.2 -1.5 0  -0.1000000000000001 -1.5 0  0 -1.5 0  0.1000000000000001 -1.5 0  0.2000000000000002 -1.5 0  0.2999999999999998 -1.5 0  0.3999999999999999 -1.5 0  0.5 -1.5 0  0.6000000000000001 -1.5 0  0.7000000000000002 -1.5 0  0.7999999999999998 -1.5 0  0.8999999999999999 -1.5 0  1 -1.5 0  1.1 -1.5 0  1.2 -1.5 0  1.3 -1.5 0  1.4 -1.5 0  1.5 -1.5 0  1.6 -1.5 0  1.7 -1.5 0  1.8 -1.5 0  1.9 -1.5 0  2 -1.5 0  -2 -1.4 0  -1.9 -1.4 0  -1.8 -1.4 0  -1.7 -1.4 0  -1.6 -1.4 0  -1.5 -1.4 0  -1.4 -1.4 0  -1.3 -1.4 0  -1.2 -1.4 0  -1.1 -1.4 0  -1 -1.4 0  -0.8999999999999999 -1.4 0  -0.8 -1.4 0  -0.7 -1.4 0  -0.6000000000000001 -1.4 0  -0.5 -1.4 0  -0.3999999999999999 -1.4 0  -0.3 -1.4 0  -0.2 -1.4 0  -0.1000000000000001 -1.4 0  0 -1.4 0  0.1000000000000001 -1.4 0  0.2000000000000002 -1.4 0  0.2999999999999998 -1.4 0  0.3999999999999999 -1.4 0  0.5 -1.4 0  0.6000000000000001 -1.4 0  0.7000000000000002 -1.4 0  0.7999999999999998 -1.4 0  0.8999999999999999 -1.4 0  1 -1.4 0  1.1 -1.4 0  1.2 -1.4 0  1.3 -1.4 0  1.4 -1.4 0  1.5 -1.4 0  1.6 -1.4 0  1.7 -1.4 0  1.8 -1.4 0  1.9 -1.4 0  2 -1.4 0  -2 -1.3 0  -1.9 -1.3 0  -1.8 -1.3 0  -1.7 -1.3 0  -1.6 -1.3 0  -1.5 -1.3 0  -1.4 -1.3 0  -1.3 -1.3 0  -1.2 -1.3 0  -1.1 -1.3 0  -1 -1.3 0  -0.8999999999999999 -1.3 0  -0.8 -1.3 0  -0.7 -1.3 0  -0.6000000000000001 -1.3 0  -0.5 -1.3 0  -0.3999999999999999 -1.3 0  -0.3 -1.3 0  -0.2 -1.3 0  -0.1000000000000001 -1.3 0  0 -1.3 0  0.1000000000000001 -1.3 0  0.2000000000000002 -1.3 0  0.2999999999999998 -1.3 0  0.3999999999999999 -1.3 0  0.5 -1.3 0  0.6000000000000001 -1.3 0  0.7000000000000002 -1.3 0  0.7999999999999998 -1.3 0  0.8999999999999999 -1.3 0  1 -1.3 0  1.1 -1.3 0  1.2 -1.3 0  1.3 -1.3 0  1.4 -1.3 0  1.5 -1.3 0  1.6 -1.3 0  1.7 -1.3 0  1.8 -1.3 0  1.9 -1.3 0  2 -1.3 0  -2 -1.2 0  -1.9 -1.2 0  -1.8 -1.2 0  -1.7 -1.2 0  -1.6 -1.2 0  -1.5 -1.2 0  -1.4 -1.2 0  -1.3 -1.2 0  -1.2 -1.2 0  -1.1 -1.2 0  -1 -1.2 0  -0.8999999999999999 -1.2 0  -0.8 -1.2 0  -0.7 -1.2 0  -0.6000000000000001 -1.2 0  -0.5 -1.2 0  -0.3999999999999999 -1.2 0  -0.3 -1.2 0  -0.2 -1.2 0  -0.1000000000000001 -1.2 0  0 -1.2 0  0.1000000000000001 -1.2 0  0.2000000000000002 -1.2 0  0.2999999999999998 -1.2 0  0.3999999999999999 -1.2 0  0.5 -1.2 0  0.6000000000000001 -1.2 0  0.7000000000000002 -1.2 0  0.7999999999999998 -1.2 0  0.8999999999999999 -1.2 0  1 -1.2 0  1.1 -1.2 0  1.2 -1.2 0  1.3 -1.2 0  1.4 -1.2 0  1.5 -1.2 0  1.6 -1.2 0  1.7 -1.2 0  1.8 -1.2 0  1.9 -1.2 0  2 -1.2 0  -2 -1.1 0  -1.9 -1.1 0  -1.8 -1.1 0  -1.7 -1.1 0  -1.6 -1.1 0  -1.5 -1.1 0  -1.4 -1.1 0  -1.3 -1.1 0  -1.2 -1.1 0  -1.1 -1.1 0  -1 -1.1 0  -0.8999999999999999 -1.1 0  -0.8 -1.1 0  -0.7 -1.1 0  -0.6000000000000001 -1.1 0  -0.5 -1.1 0  -0.3999999999999999 -1.1 0  -0.3 -1.1 0  -0.2 -1.1 0  -0.1000000000000001 -1.1 0  0 -1.1 0  0.1000000000000001 -1.1 0  0.2000000000000002 -1.1 0  0.2999999999999998 -1.1 0  0.3999999999999999 -1.1 0  0.5 -1.1 0  0.6000000000000001 -1.1 0  0.7000000000000002 -1.1 0  0.7999999999999998 -1.1 0  0.8999999999999999 -1.1 0  1 -1.1 0  1.1 -1.1 0  1.2 -1.1 0  1.3 -1.1 0  1.4 -1.1 0  1.5 -1.1 0  1.6 -1.1 0  1.7 -1.1 0  1.8 -1.1 0  1.9 -1.1 0  2 -1.1 0  -2 -1 0  -1.9 -1 0  -1.8 -1 0  -1.7 -1 0  -1.6 -1 0  -1.5 -1 0  -1.4 -1 0  -1.3 -1 0  -1.2 -1 0  -1.1 -1 0  -1 -1 0  -0.8999999999999999 -1 0  -0.8 -1 0  -0.7 -1 0  -0.6000000000000001 -1 0  -0.5 -1 0  -0.3999999999999999 -1 0  -0.3 -1 0  -0.2 -1 0  -0.1000000000000001 -1 0  0 -1 0  0.1000000000000001 -1 0  0.2000000000000002 -1 0  0.2999999999999998 -1 0  0.3999999999999999 -1 0  0.5 -1 0  0.6000000000000001 -1 0  0.7000000000000002 -1 0  0.7999999999999998 -1 0  0.8999999999999999 -1 0  1 -1 0  1.1 -1 0  1.2 -1 0  1.3 -1 0  1.4 -1 0  1.5 -1 0  1.6 -1 0  1.7 -1 0  1.8 -1 0  1.9 -1 0  2 -1 0  -2 -0.8999999999999999 0  -1.9 -0.8999999999999999 0  -1.8 -0.8999999999999999 0  -1.7 -0.8999999999999999 0  -1.6 -0.8999999999999999 0  -1.5 -0.8999999999999999 0  -1.4 -0.8999999999999999 0  -1.3 -0.8999999999999999 0  -1.2 -0.8999999999999999 0  -1.1 -0.8999999999999999 0  -1 -0.8999999999999999 0  -0.8999999999999999 -0.8999999999999999 0  -0.8 -0.8999999999999999 0  -0.7 -0.8999999999999999 0  -0.6000000000000001 -0.8999999999999999 0  -0.5 -0.8999999999999999 0  -0.3999999999999999 -0.8999999999999999 0  -0.3 -0.8999999999999999 0  -0.2 -0.8999999999999999 0  -0.1000000000000001 -0.8999999999999999 0  0 -0.8999999999999999 0  0.1000000000000001 -0.8999999999999999 0  0.2000000000000002 -0.8999999999999999 0  0.2999999999999998 -0.8999999999999999 0  0.3999999999999999 -0.8999999999999999 0  0.5 -0.8999999999999999 0  0.6000000000000001 -0.8999999999999999 0  0.7000000000000002 -0.8999999999999999 0  0.7999999999999998 -0.8999999999999999 0  0.8999999999999999 -0.8999999999999999 0  1 -0.8999999999999999 0  1.1 -0.8999999999999999 0  1.2 -0.8999999999999999 0  1.3 -0.8999999999999999 0  1.4 -0.8999999999999999 0  1.5 -0.8999999999999999 0  1.6 -0.8999999999999999 0  1.7 -0.8999999999999999 0  1.8 -0.8999999999999999 0  1.9 -0.8999999999999999 0  2 -0.8999999999999999 0  -2 -0.8 0  -1.9 -0.8 0  -1.8 -0.8 0  -1.7 -0.8 0  -1.6 -0.8 0  -1.5 -0.8 0  -1.4 -0.8 0  -1.3 -0.8 0  -1.2 -0.8 0  -1.1 -0.8 0  -1 -0.8 0  -0.8999999999999999 -0.8 0  -0.8 -0.8 0  -0.7 -0.8 0  -0.6000000000000001 -0.8 0  -0.5 -0.8 0  -0.3999999999999999 -0.8 0  -0.3 -0.8 0  -0.2 -0.8 0  -0.1000000000000001 -0.8 0  0 -0.8 0  0.1000000000000001 -0.8 0  0.2000000000000002 -0.8 0  0.2999999999999998 -0.8 0  0.3999999999999999 -0.8 0  0.5 -0.8 0  0.6000000000000001 -0.8 0  0.7000000000000002 -0.8 0  0.7999999999999998 -0.8 0  0.8999999999999999 -0.8 0  1 -0.8 0  1.1 -0.8 0  1.2 -0.8 0  1.3 -0.8 0  1.4 -0.8 0  1.5 -0.8 0  1.6 -0.8 0  1.7 -0.8 0  1.8 -0.8 0  1.9 -0.8 0  2 -0.8 0  -2 -0.7 0  -1.9 -0.7 0  -1.8 -0.7 0  -1.7 -0.7 0  -1.6 -0.7 0  -1.5 -0.7 0  -1.4 -0.7 0  -1.3 -0.7 0  -1.2 -0.7 0  -1.1 -0.7 0  -1 -0.7 0  -0.8999999999999999 -0.7 0  -0.8 -0.7 0  -0.7 -0.7 0  -0.6000000000000001 -0.7 0  -0.5 -0.7 0  -0.3999999999999999 -0.7 0  -0.3 -0.7 0  -0.2 -0.7 0  -0.1000000000000001 -0.7 0  0 -0.7 0  0.1000000000000001 -0.7 0  0.2000000000000002 -0.7 0  0.2999999999999998 -0.7 0  0.3999999999999999 -0.7 0  0.5 -0.7 0  0.600000000000000
[...]
<PointData  Scalars="f_1726"> 
<DataArray  type="Float64"  Name="f_1726"  format="ascii">0.0000000000000000e+00  0.0000000000000000e+00  0.0000000000000000e+00  0.0000000000000000e+00  0.0000000000000000e+00  0.0000000000000000e+00  0.0000000000000000e+00  0.0000000000000000e+00  0.0000000000000000e+00  0.0000000000000000e+00  0.0000000000000000e+00  0.0000000000000000e+00  0.0000000000000000e+00  0.0000000000000000e+00  0.0000000000000000e+00  0.0000000000000000e+00  0.0000000000000000e+00  0.0000000000000000e+00  0.0000000000000000e+00  0.0000000000000000e+00  0.0000000000000000e+00  0.0000000000000000e+00  0.0000000000000000e+00  0.0000000000000000e+00  0.0000000000000000e+00  0.0000000000000000e+00  0.0000000000000000e+00  0.0000000000000000e+00  0.0000000000000000e+00  0.0000000000000000e+00  0.0000000000000000e+00  0.0000000000000000e+00  0.0000000000000000e+00  0.0000000000000000e+00  0.0000000000000000e+00  0.0000000000000000e+00  0.0000000000000000e+00  0.0000000000000000e+00  0.0000000000000000e+00  0.0000000000000000e+00  0.0000000000000000e+00  0.0000000000000000e+00  -6.5503166146081057e-13  -7.6334718797421094e-13  5.0161715013610967e-12  -1.2087551072172363e-12  -2.5405156577073554e-11  1.3687556320586627e-11  1.2500062590895639e-10  1.7197915311818121e-11  -5.1885490102033021e-10  -1.0353056948702296e-09  -9.1257417302307036e-10  -3.1453824882668110e-10  8.5125418951720433e-11  8.6240945592812609e-11  -8.1858523212629923e-12  -1.6529736345802402e-11  2.7693660798547227e-12  2.5441528908763266e-12  -9.8932185424351402e-13  -1.8074599566700927e-13  2.1539511644175200e-13  -4.2253956410417064e-14  -1.8421444599135179e-14  1.3760556055417619e-14  -3.0209408040072442e-15  -6.8633210775479800e-16  7.5810258209659198e-16  -2.7194176725642526e-16  3.1917712935385999e-17  2.0433091556320262e-17  -1.5229214023622435e-17  5.7072024444400113e-18  -1.2621253812302171e-18  1.0449745886591576e-20  1.4798306032002614e-19  -8.9017461570157674e-20  3.6218472052908848e-20  -1.2006073696789289e-20  3.8058468908122894e-21  0.0000000000000000e+00  0.0000000000000000e+00  -7.6334718797421043e-13  5.4896873128101389e-12  -4.8836175477269371e-12  -2.4048921340699149e-11  5.0502350480088745e-11  9.4387841109035857e-11  -2.7193165580968149e-10  -5.3118903191085476e-10  7.9204076610323475e-10  3.3946769972959445e-09  4.4317203670508466e-09  2.5955338082478861e-09  2.0993158026805033e-10  -5.0315281270768585e-10  -1.1436773833310203e-10  9.3414249419638503e-11  1.5804156153427584e-11  -1.8712535926257358e-11  8.5430125746361434e-13  2.9334728398775659e-12  -9.8859422553142997e-13  -1.4297176034293415e-13  2.0621235907706027e-13  -5.9648149013691472e-14  -5.5567846748270599e-15  1.1196241625873658e-14  -4.4650488023847372e-15  6.2103519464293504e-16  2.9555979062465917e-16  -2.3806598464137957e-16  8.9685640833047277e-17  -1.9148366964223880e-17  -3.5756378196863966e-19  2.5249215770217124e-18  -1.4324083232541146e-18  5.5999042861098845e-19  -1.7707933734503992e-19  4.8102737469825160e-20  -1.2006073696789304e-20  0.0000000000000000e+00  0.0000000000000000e+00  5.0161715013610943e-12  -4.8836175477269371e-12  -2.1986743105676967e-11  6.5114998043301766e-11  3.5924000511324590e-11  -3.8629766062243549e-10  2.3969796332272482e-11  1.9297300227384333e-09  7.3285031249198369e-10  -7.8496462794146416e-09  -1.6705213206533954e-08  -1.4808073674688129e-08  -4.8055615565439319e-09  1.5789704653766655e-09  1.2862177995020212e-09  -2.2855496937015817e-10  -2.3017051486815823e-10  6.7926752922900406e-11  2.7235871460912323e-11  -1.7925938511233999e-11  7.3021622491258324e-13  2.6069136076570622e-12  -1.0692173943915033e-12  3.1785304755654830e-14  1.4465272440602036e-13  -7.0137513773245490e-14  1.2920251031126231e-14  3.2816692576221307e-15  -3.4338692975588155e-15  1.3915287520167308e-15  -3.1824494370997839e-16  3.6586406044588127e-18  3.6684117347694320e-17  -2.1753502280676007e-17  8.6366392306691488e-18  -2.7575590752946309e-18  7.4725778812075095e-19  -1.7707933734503912e-19  3.6218472052908740e-20  0.0000000000000000e+00  0.0000000000000000e+00  -1.2087551072172433e-12  -2.4048921340699116e-11  6.5114998043301727e-11  1.2220302332517973e-11  -3.9566554972282224e-10  4.5054952417860357e-10  1.7269531052619212e-09  -3.1495831918837319e-09  -8.7017825318283326e-09  9.4609134011891780e-09  5.0271063784604578e-08  6.7757515555066002e-08  3.8816684159811640e-08  1.7909157629558703e-09  -7.7085974457833340e-09  -1.0901269227780658e-09  1.4555695779412986e-09  4.3806149455447495e-11  -2.5901008505986449e-10  5.3939322894486101e-11  2.6558725513705682e-11  -1.7345969329401947e-11  2.3273869381172917e-12  1.6694529507000870e-12  -1.0654213519315520e-12  2.5042391090409596e-13  2.8181034838987156e-14  -4.8422515211715864e-14  2.1546878280737573e-14  -5.3259220921540107e-15  2.2490349555519723e-16  5.2724180700729861e-16  -3.3181315660270192e-16  1.3439918339539516e-16  -4.3288517964550917e-17  1.1773874345745422e-17  -2.7575590752946440e-18  5.5999042861098922e-19  -8.9017461570158072e-20  0.0000000000000000e+00  0.0000000000000000e+00  -2.5405156577073567e-11  5.0502350480088764e-11  3.5924000511324448e-11  -3.9566554972282198e-10  5.8846656308893582e-10  1.3018125878523273e-09  -4.9726854967702989e-09  -2.7643384564816457e-09  2.6826634062496488e-08  1.8470488925285794e-08  -1.0925806050945762e-07  -2.5252676466542078e-07  -2.2507110430664737e-07  -6.7231645874544536e-08  2.7353408121539406e-08  1.7137443584434670e-08  -4.9508259569060655e-09  -2.6390331198866440e-09  1.2953873480606604e-09  1.3945733652810792e-10  -2.4975216489176075e-10  6.1442275616066476e-11  1.5279873445747136e-11  -1.5428637151409052e-11  4.5630050087606088e-12  5.9884812137752580e-14  -6.6117883097287102e-13  3.3053904928052809e-13  -8.8616630643563865e-14  6.2764047919067390e-15  7.4719886409315978e-15  -5.0523496545271980e-15  2.0924577395464548e-15  -6.8002148407385874e-16  1.8536324136662152e-16  -4.3288517964550818e-17  8.6366392306691642e-18  -1.4324083232541123e-18  1.4798306032002611e-19  0.0000000000000000e+00  0.0000000000000000e+00  1.3687556320586708e-11  9.4387841109035870e-11  -3.8629766062243549e-10  4.5054952417860413e-10  1.3018125878523257e-09  -5.3715609224080431e-09  1.4546459340200494e-09  2.8314784740522518e-08  -3.0417777362528262e-08  -1.3831841012780874e-07  1.0061264578745252e-07  7.3987580609972734e-07  1.0360877038342409e-06  5.7718604467115179e-07  2.8195022708708818e-09  -1.1585997492570531e-07  -5.4614631976222797e-09  2.1211440439522159e-08  -2.3765006249632719e-09  -2.9905428210064667e-09  1.2397704510026309e-09  5.1332001242394135e-11  -2.0811378053700162e-10  7.8812716321629408e-11  -5.2194238665260211e-12  -8.5910539733180152e-12  5.0045660697358958e-12  -1.4644853023634962e-12  1.4374216438007726e-13  1.0371493291907471e-13  -7.6685513366766608e-14  3.2576809701469523e-14  -1.0692966562134991e-14  2.9213531585869701e-15  -6.8002148407385864e-16  1.3439918339539497e-16  -2.1753502280676075e-17  2.5249215770217151e-18  1.0449745886589884e-20  0.0000000000000000e+00  0.0000000000000000e+00  1.2500062590895644e-10  -2.7193165580968201e-10  2.3969796332272944e-11  1.7269531052619201e-09  -4.9726854967702980e-09  1.4546459340200581e-09  2.6937956749615925e-08  -5.3765485922886307e-08  -8.5385629981587954e-08  3.5242687858234091e-07  3.9182256706511959e-07  -1.4918181265962502e-06  -3.8293666674300975e-06  -3.4330753394632561e-06  -9.1974970322509651e-07  4.6811441057418144e-07  2.1357804198886941e-07  -9.4272609914392989e-08  -2.3256070881810524e-08  2.0810809282438993e-08  -2.2123956351573252e-09  -2.4875346354454546e-09  1.2882029359711532e-09  -1.7840463990111109e-10  -1.0266221032175326e-10  7.4412727890289086e-11  -2.4015776950521891e-11  3.0026910465395329e-12  1.3967367013995303e-12  -1.1591703055587993e-12  5.0714337343979997e-13  -1.6834095454753193e-13  4.6106566593106862e-14  -1.0692966562135010e-14  2.0924577395464587e-15  -3.3181315660270246e-16  3.6684117347694561e-17  -3.5756378196866787e-19  -1.2621253812302127e-18  0.0000000000000000e+00  0.0000000000000000e+00  1.7197915311817940e-11  -5.3118903191085465e-10  1.9297300227384354e-09  -3.1495831918837365e-09  -2.7643384564816416e-09  2.8314784740522508e-08  -5.3765485922886347e-08  -5.8005704806840660e-08  4.1308456341338530e-07  -1.6664306260220679e-07  -2.1278659199843062e-06  8.1200948623371578e-07  1.0858403332772164e-05  1.5935338555141962e-05  8.5638273913976718e-06  -3.8195324676965529e-07  -1.6998143585412198e-06  1.0025335840050723e-07  2.7997666902503129e-07  -7.6898503377912593e-08  -2.2788864849152971e-08  1.9659449266791395e-08  -4.2390493938586554e-09  -1.0354245931358970e-09  1.0778891933617236e-09  -3.9013751091234432e-10  5.9457884771156446e-11  1.7946075226122515e-11  -1.7427708458955405e-11  7.8936888767851259e-12  -2.6538652623674548e-12  7.2888779639468724e-13  -1.6834095454753122e-13  3.2576809701469410e-14  -5.0523496545271799e-15  5.2724180700729566e-16  3.6586406044591093e-18  -1.9148366964223834e-17  5.7072024444399959e-18  0.0000000000000000e+00  0.0000000000000000e+00  -5.1885490102033032e-10  7.9204076610323558e-10  7.3285031249198121e-10  -8.7017825318283359e-09  2.6826634062496511e-08  -3.0417777362528288e-08  -8.5385629981587849e-08  4.1308456341338567e-07  -3.6902205366331885e-07  -1.8156272846446957e-06  4.1878834828613709e-06  7.6017922523703728e-06  -1.9756616815220579e-05  -5.8328133891932759e-05  -5.2626096138029348e-05  -1.2124861578994899e-05  7.9062556849527162e-06  2.3317596402828264e-06  -1.6202484560266502e-06  -4.7639422789510287e-08  2.7042649660589316e-07  -8.5988751859448716e-08  -6.0643591618374956e-09  1.4998084531504965e-08  -6.2601685263531606e-09  1.1364638320288144e-09  2.1252684819487910e-10  -2.6012502918115778e-10  1.2282519353439643e-10  -4.1904958786274804e-11  1.1545219101437202e-11  -2.6538652623674673e-12  5.0714337343980077e-13  -7.6685513366766974e-14  7.4719886409316767e-15  2.2490349555518081e-16  -3.1824494370997676e-16  8.9685640833046772e-17  -1.5229214023622389e-17  0.0000000000000000e+00  0.0000000000000000e+00  -1.0353056948702286e-09  3.3946769972959412e-09  -7.8496462794146416e-09  9.4609134011891929e-09  1.8470488925285791e-08  -1.3831841012780887e-07  3.5242687858234107e-07  -1.6664306260220790e-07  -1.8156272846446974e-06  5.0373535524150880e-06  2.2696696571715411e-06  -3.1213333496274888e-05  1.9585295760604654e-07  1.5858040821162476e-04  2.4704073328674450e-04  1.2653935155859918e-04  -1.3354105650939245e-05  -2.3902720255394195e-05  4.4204112380359366e-06  3.0406943116649329e-06  -1.5539780349535052e-06  8.0971566367916390e-08  1.9499666774257792e-07  -9.8719513686498108e-08  2.1167854049838268e-08  2.1187731158854725e-09  -3.8436119543884652e-09  1.9100540087262501e-09  -6.6294426809366858e-10  1.8329364592782629e-10  -4.1904958786274733e-11  7.8936888767851420e-12  -1.1591703055587979e-12  1.0371493291907471e-13  6.2764047919067454e-15  -5.3259220921540060e-15  1.3915287520167351e-15  -2.3806598464137952e-16  2.0433091556320296e-17  0.0000000000000000e+00  0.0000000000000000e+00  -9.1257417302306922e-10  4.4317203670508417e-09  -1.6705213206533941e-08  5.0271063784604539e-08  -1.0925806050945768e-07  1.0061264578745266e-07  3.9182256706511981e-07  -2.1278659199843066e-06  4.1878834828613776e-06  2.2696696571715432e-06  -3.1340423889819094e-05  3.9653913723047855e-05  1.3860812578185092e-04  -2.4763243852444008e-04  -8.9379321485306040e-04  -8.1210058913870316e-04  -1.4897207701116175e-04  1.3112830248505699e-04  1.7587815596996382e-05  -2.4637051378386004e-05  4.1749091387875403e-06  2.2179935286814689e-06  -1.5158051901003013e-06  3.8603811695816989e-07  1.1543081339577648e-08  -5.5967058391848697e-08  2.9674438947573044e-08  -1.0511877803939665e-08  2.9181449023353202e-09  -6.6294426809366889e-10  1.2282519353439640e-10  -1.7427708458955473e-11  1.3967367013995366e-12  1.4374216438007557e-13  -8.8616630643563524e-14  2.1546878280737478e-14  -3.4338692975588096e-15  2.9555979062465640e-16  3.1917712935386331e-17  0.0000000000000000e+00  0.0000000000000000e+00  -3.1453824882668059e-10  2.5955338082478828e-09  -1.4808073674688119e-08  6.7757515555065936e-08  -2.5252676466542063e-07  7.3987580609972755e-07  -1.4918181265962508e-06  8.1200948623371504e-07  7.6017922523703737e-06  -3.1213333496274935e-05  3.9653913723047868e-05  1.0543428889565246e-04  -4.2099561921489140e-04  -2.0715345396173679e-04  2.2949600615886486e-03  3.8736343324932278e-03  1.8543287318201517e-03  -3.4003250958038720e-04  -3.0869119904516202e-04  1.0811143940121761e-04  1.7430930502480112e-05  -2.2245296020332099e-05  6.8999215295415347e-06  -2.1222515059009079e-07  -7.9679937368038672e-07  4.6026950312058263e-07  -1.6714707931963397e-07  4.6619199170683997e-08  -1.0511877803939685e-08  1.9100540087262551e-09  -2.6012502918115845e-10  1.7946075226122683e-11  3.0026910465395119e-12  -1.4644853023634944e-12  3.3053904928052768e-13  -4.8422515211715763e-14  3.2816692576221319e-15  6.2103519464293474e-16  -2.7194176725642511e-16  0.0000000000000000e+00  0.0000000000000000e+00  8.5125418951720614e-11  2.0993158026804868e-10  -4.8055615565439203e-09  3.8816684159811580e-08  -2.2507110430664718e-07  1.0360877038342405e-06  -3.8293666674300975e-06  1.0858403332772168e-05  -1.9756616815220579e-05  1.9585295760603649e-07  1.3860812578185108e-04  -4.2099561921489167e-04  1.2588548450260273e-04  2.3789480640102681e-03  -2.7559506533598164e-03  -1.3813758038407124e-02  -1.2650576160892558e-02  -1.5484232270594552e-03  2.1054787056885567e-03  -7.6349251901858473e-05  -2.9875065006420919e-04  1.2040806632140783e-04  -1.0581902020002863e-05  -1.0926941759881064e-05  7.1192711541615554e-06  -2.6671187804248825e-06  7.4802888262470737e-07  -1.6714707931963337e-07  2.9674438947572958e-08  -3.8436119543884503e-09  2.1252684819487698e-10  5.9457884771156743e-11  -2.4015776950521836e-11  5.0045660697358796e-12  -6.6117883097286708e-13  2.8181034838986537e-14  1.2920251031126338e-14  -4.4650488023847372e-15  7.5810258209659148e-16  0.0000000000000000e+00  0.0000000000000000e+00  8.6240945592812544e-11  -5.0315281270768585e-10  1.5789704653766669e-09  1.7909157629558532e-09  -6.7231645874544404e-08  5.7718604467115137e-07  -3.4330753394632540e-06  1.5935338555141958e-05  -5.8328133891932780e-05  1.5858040821162481e-04  -2.4763243852444019e-04  -2.0715345396173755e-04  2.3789480640102707e-03  -4.6742811969546173e-03  -6.8520117073475918e-03  3.2585677224074953e-02  6.1824037933416780e-02  2.6681191934392057e-02  -7.7001586927356721e-03  -3.2008834696137050e-03  2.0234112760350296e-03  -3.0211145133660094e-04  -1.3964967593158573e-04  1.0957710732805150e-04  -4.2752221731340774e-05  1.2071074883088601e-05  -2.6671187804248948e-06  4.6026950312058353e-07  -5.5967058391849002e-08  2.1187731158855316e-09  1.1364638320288012e-09  -3.9013751091234318e-10  7.4412727890288660e-11  -8.5910539733179651e-12  5.9884812137747241e-14  2.5042391090409591e-13  -7.0137513773245591e-14  1.1196241625873620e-14  -6.8633210775479405e-16  0.0000000000000000e+00  0.0000000000000000e+00  -8.1858523212630553e-12  -1.1436773833310170e-10  1.2862177995020200e-09  -7.7085974457833340e-09  2.7353408121539439e-08  2.8195022708705236e-09  -9.1974970322509440e-07  8.5638273913976633e-06  -5.2626096138029294e-05  2.4704073328674439e-04  -8.9379321485306062e-04  2.2949600615886499e-03  -2.7559506533598177e-03  -6.8520117073476014e-03  3.7158458908934010e-02  -2.0889123569256707e-02  -2.1632946423783195e-01  -1.9992757801105324e-01  -7.7067601400780230e-03  3.1330738207124523e-02  -7.3263841640190605e-03  -1.5126419144499467e-03  1.6708908128285477e-03  -6.8949337941609826e-04  1.9630755744606666e-04  -4.2752221731340713e-05  7.1192711541615706e-06  -7.9679937368038524e-07  1.1543081339577552e-08  2.1167854049838275e-08  -6.2601685263531540e-09  1.0778891933617257e-09  -1.0266221032175309e-10  -5.2194238665260244e-12  4.5630050087606080e-12  -1.0654213519315500e-12  1.4465272440602053e-13  -5.5567846748270346e-15  -3.0209408040072430e-15  0.0000000000000000e+00  0.0000000000000000e+00  -1.6529736345802405e-11  9.3414249419638632e-11  -2.2855496937015960e-10  -1.0901269227780573e-09  1.7137443584434627e-08  -1.1585997492570525e-07  4.6811441057418160e-07  -3.8195324676965794e-07  -1.2124861578994880e-05  1.2653935155859907e-04  -8.1210058913870305e-04  3.8736343324932278e-03  -1.3813758038407127e-02  3.2585677224074967e-02  -2.0889123569256665e-02  -1.6891768488910922e-01  4.4073137055531286e-01  1.0180640982102884e+00  3.6564494570046197e-01  -1.6318332866479834e-01  -8.0691233895125915e-03  2.4979141899589268e-02  -1.1216933743751652e-02  3.2282168289686809e-03  -6.8949337941609805e-04  1.0957710732805138e-04  -1.0926941759881105e-05  -2.1222515059008463e-07  3.8603811695816841e-07  -9.8719513686497724e-08  1.4998084531504873e-08  -1.0354245931358873e-09  -1.7840463990111293e-10  7.8812716321629679e-11  -1.5428637151409075e-11  1.6694529507000866e-12  3.1785304755654868e-14  -5.9648149013691396e-14  1.3760556055417613e-14  0.0000000000000000e+00  0.0000000000000000e+00  2.7693660798547316e-12  1.5804156153427510e-11  -2.3017051486815794e-10  1.4555695779412982e-09  -4.9508259569060746e-09  -5.4614631976222384e-09  2.1357804198886933e-07  -1.6998143585412195e-06  7.9062556849527196e-06  -1.3354105650939258e-05  -1.4897207701116159e-04  1.8543287318201513e-03  -1.2650576160892560e-02  6.1824037933416787e-02  -2.1632946423783203e-01  4.4073137055531275e-01  1.8212381345946715e-01  -3.4668794038957911e+00  -3.2396050711276172e+00  2.8283864019475935e-01  3.5479588687719665e-01  -1.8493505953283665e-01  5.4015781561666976e-02  -1.1216933743751666e-02  1.6708908128285510e-03  -1.3964967593158646e-04  -1.0581902020002754e-05  6.8999215295415042e-06  -1.5158051901002988e-06  1.9499666774257758e-07  -6.0643591618374774e-09  -4.2390493938586629e-09  1.2882029359711517e-09  -2.0811378053700134e-10  1.5279873445747087e-11  2.3273869381172994e-12  -1.0692173943915073e-12  2.0621235907706022e-13  -1.8421444599135191e-14  0.0000000000000000e+00  0.0000000000000000e+00  2.5441528908763249e-12  -1.8712535926257358e-11  6.7926752922900471e-11  4.3806149455447069e-11  -2.6390331198866419e-09  2.1211440439522182e-08  -9.4272609914393200e-08  1.0025335840050851e-07  2.3317596402828200e-06  -2.3902720255394188e-05  1.3112830248505707e-04  -3.4003250958038802e-04  -1.5484232270594500e-03  2.6681191934392029e-02  -1.9992757801105324e-01  1.0180640982102891e+00  -3.4668794038957893e+00  4.9250471311976911e+00  1.7977509508699278e+01  4.1039786571129584e+00  -3.1209239835641998e+00  9.3198934147939039e-01  -1.8493505953283595e-01  2.4979141899589177e-02  -1.5126419144499349e-03  -3.0211145133660105e-04  1.2040806632140802e-04  -2.2245296020332027e-05  2.2179935286814579e-06  8.0971566367918468e-08  -8.5988751859448902e-08  1.9659449266791478e-08  -2.4875346354454567e-09  5.1332001242394723e-11  6.1442275616066347e-11  -1.7345969329401899e-11  2.6069136076570598e-12  -1.4297176034293279e-13  -4.2253956410417171e-14  0.0000000000000000e+00  0.0000000000000000e+00  -9.8932185424351482e-13  8.5430125746361838e-13  2.7235871460912323e-11  -2.5901008505986460e-10  1.2953873480606612e-09  -2.3765006249632815e-09  -2.3256070881810468e-08  2.7997666902503129e-07  -1.6202484560266514e-06  4.4204112380359493e-06  1.7587815596996315e-05  -3.0869119904516191e-04  2.1054787056885567e-03  -7.7001586927356834e-03  -7.7067601400779354e-03  3.6564494570046152e-01  -3.2396050711276141e+00  1.7977509508699271e+01  -5.8474034659708153e+01  -5.5451403265094484e+01  1.7225875416367959e+01  -3.1209239835642122e+00  3.5479588687719776e-01  -8.0691233895128864e-03  -7.3263841640190041e-03  2.0234112760350166e-03  -2.9875065006420822e-04  1.7430930502479844e-05  4.1749091387875750e-06  -1.5539780349535090e-06  2.7042649660589332e-07  -2.2788864849153037e-08  -2.2123956351573256e-09  1.2397704510026321e-09  -2.497521648917610