<?xml version="1.0"?>
<VTKFile type="UnstructuredGrid"  version="0.1"  >
<UnstructuredGrid>
<Piece  NumberOfPoints="1681" NumberOfCells="3200">
<Points>
<DataArray  type="Float64"  NumberOfComponents="3"  format="ascii">-2 -2 0  -1.9 -2 0  -1.8 -2 0  -1.7 -2 0  -1.6 -2 0  -1.5 -2 0  -1.4 -2 0  -1.3 -2 0  -1.2 -2 0  -1.1 -2 0  -1 -2 0  -0.8999999999999999 -2 0  -0.8 -2 0  -0.7 -2 0  -0.6000000000000001 -2 0  -0.5 -2 0  -0.3999999999999999 -2 0  -0.3 -2 0  -0.2 -2 0  -0.1000000000000001 -2 0  0 -2 0  0.1000000000000001 -2 0  0.2000000000000002 -2 0  0.2999999999999998 -2 0  0.3999999999999999 -2 0  0.5 -2 0  0.6000000000000001 -2 0  0.7000000000000002 -2 0  0.7999999999999998 -2 0  0.8999999999999999 -2 0  1 -2 0  1.1 -2 0  1.2 -2 0  1.3 -2 0  1.4 -2 0  1.5 -2 0  1.6 -2 0  1.7 -2 0  1.8 -2 0  1.9 -2 0  2 -2 0  -2 -1.9 0  -1.9 -1.9 0  -1.8 -1.9 0  -1.7 -1.9 0  -1.6 -1.9 0  -1.5 -1.9 0  -1.4 -1.9 0  -1.3 -1.9 0  -1.2 -1.9 0  -1.1 -1.9 0  -1 -1.9 0  -0.8999999999999999 -1.9 0  -0.8 -1.9 0  -0.7 -1.9 0  -0.6000000000000001 -1.9 0  -0.5 -1.9 0  -0.3999999999999999 -1.9 0  -0.3 -1.9 0  -0.2 -1.9 0  -0.1000000000000001 -1.9 0  0 -1.9 0  0.1000000000000001 -1.9 0  0.2000000000000002 -1.9 0  0.2999999999999998 -1.9 0  0.3999999999999999 -1.9 0  0.5 -1.9 0  0.6000000000000001 -1.9 0  0.7000000000000002 -1.9 0  0.7999999999999998 -1.9 0  0.8999999999999999 -1.9 0  1 -1.9 0  1.1 -1.9 0  1.2 -1.9 0  1.3 -1.9 0  1.4 -1.9 0  1.5 -1.9 0  1.6 -1.9 0  1.7 -1.9 0  1.8 -1.9 0  1.9 -1.9 0  2 -1.9 0  -2 -1.8 0  -1.9 -1.8 0  -1.8 -1.8 0  -1.7 -1.8 0  -1.6 -1.8 0  -1.5 -1.8 0  -1.4 -1.8 0  -1.3 -1.8 0  -1.2 -1.8 0  -1.1 -1.8 0  -1 -1.8 0  -0.8999999999999999 -1.8 0  -0.8 -1.8 0  -0.7 -1.8 0  -0.6000000000000001 -1.8 0  -0.5 -1.8 0  -0.3999999999999999 -1.8 0  -0.3 -1.8 0  -0.2 -1.8 0  -0.1000000000000001 -1.8 0  0 -1.8 0  0.1000000000000001 -1.8 0  0.2000000000000002 -1.8 0  0.2999999999999998 -1.8 0  0.3999999999999999 -1.8 0  0.5 -1.8 0  0.6000000000000001 -1.8 0  0.7000000000000002 -1.8 0  0.7999999999999998 -1.8 0  0.8999999999999999 -1.8 0  1 -1.8 0  1.1 -1.8 0  1.2 -1.8 0  1.3 -1.8 0  1.4 -1.8 0  1.5 -1.8 0  1.6 -1.8 0  1.7 -1.8 0  1.8 -1.8 0  1.9 -1.8 0  2 -1.8 0  -2 -1.7 0  -1.9 -1.7 0  -1.8 -1.7 0  -1.7 -1.7 0  -1.6 -1.7 0  -1.5 -1.7 0  -1.4 -1.7 0  -1.3 -1.7 0  -1.2 -1.7 0  -1.1 -1.7 0  -1 -1.7 0  -0.8999999999999999 -1.7 0  -0.8 -1.7 0  -0.7 -1.7 0  -0.6000000000000001 -1.7 0  -0.5 -1.7 0  -0.3999999999999999 -1.7 0  -0.3 -1.7 0  -0.2 -1.7 0  -0.1000000000000001 -1.7 0  0 -1.7 0  0.1000000000000001 -1.7 0  0.2000000000000002 -1.7 0  0.2999999999999998 -1.7 0  0.3999999999999999 -1.7 0  0.5 -1.7 0  0.6000000000000001 -1.7 0  0.7000000000000002 -1.7 0  0.7999999999999998 -1.7 0  0.8999999999999999 -1.7 0  1 -1.7 0  1.1 -1.7 0  1.2 -1.7 0  1.3 -1.7 0  1.4 -1.7 0  1.5 -1.7 0  1.6 -1.7 0  1.7 -1.7 0  1.8 -1.7 0  1.9 -1.7 0  2 -1.7 0  -2 -1.6 0  -1.9 -1.6 0  -1.8 -1.6 0  -1.7 -1.6 0  -1.6 -1.6 0  -1.5 -1.6 0  -1.4 -1.6 0  -1.3 -1.6 0  -1.2 -1.6 0  -1.1 -1.6 0  -1 -1.6 0  -0.8999999999999999 -1.6 0  -0.8 -1.6 0  -0.7 -1.6 0  -0.6000000000000001 -1.6 0  -0.5 -1.6 0  -0.3999999999999999 -1.6 0  -0.3 -1.6 0  -0.2 -1.6 0  -0.1000000000000001 -1.6 0  0 -1.6 0  0.1000000000000001 -1.6 0  0.2000000000000002 -1.6 0  0.2999999999999998 -1.6 0  0.3999999999999999 -1.6 0  0.5 -1.6 0  0.6000000000000001 -1.6 0  0.7000000000000002 -1.6 0  0.7999999999999998 -1.6 0  0.8999999999999999 -1.6 0  1 -1.6 0  1.1 -1.6 0  1.2 -1.6 0  1.3 -1.6 0  1.4 -1.6 0  1.5 -1.6 0  1.6 -1.6 0  1.7 -1.6 0  1.8 -1.6 0  1.9 -1.6 0  2 -1.6 0  -2 -1.5 0  -1.9 -1.5 0  -1.8 -1.5 0  -1.7 -1.5 0  -1.6 -1.5 0  -1.5 -1.5 0  -1.4 -1.5 0  -1.3 -1.5 0  -1.2 -1.5 0  -1.1 -1.5 0  -1 -1.5 0  -0.8999999999999999 -1.5 0  -0.8 -1.5 0  -0.7 -1.5 0  -0.6000000000000001 -1.5 0  -0.5 -1.5 0  -0.3999999999999999 -1.5 0  -0.3 -1.5 0  -0.2 -1.5 0  -0.1000000000000001 -1.5 0  0 -1.5 0  0.1000000000000001 -1.5 0  0.2000000000000002 -1.5 0  0.2999999999999998 -1.5 0  0.3999999999999999 -1.5 0  0.5 -1.5 0  0.6000000000000001 -1.5 0  0.7000000000000002 -1.5 0  0.7999999999999998 -1.5 0  0.8999999999999999 -1.5 0  1 -1.5 0  1.1 -1.5 0  1.2 -1.5 0  1.3 -1.5 0  1.4 -1.5 0  1.5 -1.5 0  1.6 -1.5 0  1.7 -1.5 0  1.8 -1.5 0  1.9 -1.5 0  2 -1.5 0  -2 -1.4 0  -1.9 -1.4 0  -1.8 -1.4 0  -1.7 -1.4 0  -1.6 -1.4 0  -1.5 -1.4 0  -1.4 -1.4 0  -1.3 -1.4 0  -1.2 -1.4 0  -1.1 -1.4 0  -1 -1.4 0  -0.8999999999999999 -1.4 0  -0.8 -1.4 0  -0.7 -1.4 0  -0.6000000000000001 -1.4 0  -0.5 -1.4 0  -0.3999999999999999 -1.4 0  -0.3 -1.4 0  -0.2 -1.4 0  -0.1000000000000001 -1.4 0  0 -1.4 0  0.1000000000000001 -1.4 0  0.2000000000000002 -1.4 0  0.2999999999999998 -1.4 0  0.3999999999999999 -1.4 0  0.5 -1.4 0  0.6000000000000001 -1.4 0  0.7000000000000002 -1.4 0  0.7999999999999998 -1.4 0  0.8999999999999999 -1.4 0  1 -1.4 0  1.1 -1.4 0  1.2 -1.4 0  1.3 -1.4 0  1.4 -1.4 0  1.5 -1.4 0  1.6 -1.4 0  1.7 -1.4 0  1.8 -1.4 0  1.9 -1.4 0  2 -1.4 0  -2 -1.3 0  -1.9 -1.3 0  -1.8 -1.3 0  -1.7 -1.3 0  -1.6 -1.3 0  -1.5 -1.3 0  -1.4 -1.3 0  -1.3 -1.3 0  -1.2 -1.3 0  -1.1 -1.3 0  -1 -1.3 0  -0.8999999999999999 -1.3 0  -0.8 -1.3 0  -0.7 -1.3 0  -0.6000000000000001 -1.3 0  -0.5 -1.3 0  -0.3999999999999999 -1.3 0  -0.3 -1.3 0  -0.2 -1.3 0  -0.1000000000000001 -1.3 0  0 -1.3 0  0.1000000000000001 -1.3 0  0.2000000000000002 -1.3 0  0.2999999999999998 -1.3 0  0.3999999999999999 -1.3 0  0.5 -1.3 0  0.6000000000000001 -1.3 0  0.7000000000000002 -1.3 0  0.7999999999999998 -1.3 0  0.8999999999999999 -1.3 0  1 -1.3 0  1.1 -1.3 0  1.2 -1.3 0  1.3 -1.3 0  1.4 -1.3 0  1.5 -1.3 0  1.6 -1.3 0  1.7 -1.3 0  1.8 -1.3 0  1.9 -1.3 0  2 -1.3 0  -2 -1.2 0  -1.9 -1.2 0  -1.8 -1.2 0  -1.7 -1.2 0  -1.6 -1.2 0  -1.5 -1.2 0  -1.4 -1.2 0  -1.3 -1.2 0  -1.2 -1.2 0  -1.1 -1.2 0  -1 -1.2 0  -0.8999999999999999 -1.2 0  -0.8 -1.2 0  -0.7 -1.2 0  -0.6000000000000001 -1.2 0  -0.5 -1.2 0  -0.3999999999999999 -1.2 0  -0.3 -1.2 0  -0.2 -1.2 0  -0.1000000000000001 -1.2 0  0 -1.2 0  0.1000000000000001 -1.2 0  0.2000000000000002 -1.2 0  0.2999999999999998 -1.2 0  0.3999999999999999 -1.2 0  0.5 -1.2 0  0.6000000000000001 -1.2 0  0.7000000000000002 -1.2 0  0.7999999999999998 -1.2 0  0.8999999999999999 -1.2 0  1 -1.2 0  1.1 -1.2 0  1.2 -1.2 0  1.3 -1.2 0  1.4 -1.2 0  1.5 -1.2 0  1.6 -1.2 0  1.7 -1.2 0  1.8 -1.2 0  1.9 -1.2 0  2 -1.2 0  -2 -1.1 0  -1.9 -1.1 0  -1.8 -1.1 0  -1.7 -1.1 0  -1.6 -1.1 0  -1.5 -1.1 0  -1.4 -1.1 0  -1.3 -1.1 0  -1.2 -1.1 0  -1.1 -1.1 0  -1 -1.1 0  -0.8999999999999999 -1.1 0  -0.8 -1.1 0  -0.7 -1.1 0  -0.6000000000000001 -1.1 0  -0.5 -1.1 0  -0.3999999999999999 -1.1 0  -0.3 -1.1 0  -0.2 -1.1 0  -0.1000000000000001 -1.1 0  0 -1.1 0  0.1000000000000001 -1.1 0  0.2000000000000002 -1.1 0  0.2999999999999998 -1.1 0  0.3999999999999999 -1.1 0  0.5 -1.1 0  0.6000000000000001 -1.1 0  0.7000000000000002 -1.1 0  0.7999999999999998 -1.1 0  0.8999999999999999 -1.1 0  1 -1.1 0  1.1 -1.1 0  1.2 -1.1 0  1.3 -1.1 0  1.4 -1.1 0  1.5 -1.1 0  1.6 -1.1 0  1.7 -1.1 0  1.8 -1.1 0  1.9 -1.1 0  2 -1.1 0  -2 -1 0  -1.9 -1 0  -1.8 -1 0  -1.7 -1 0  -1.6 -1 0  -1.5 -1 0  -1.4 -1 0  -1.3 -1 0  -1.2 -1 0  -1.1 -1 0  -1 -1 0  -0.8999999999999999 -1 0  -0.8 -1 0  -0.7 -1 0  -0.6000000000000001 -1 0  -0.5 -1 0  -0.3999999999999999 -1 0  -0.3 -1 0  -0.2 -1 0  -0.1000000000000001 -1 0  0 -1 0  0.1000000000000001 -1 0  0.2000000000000002 -1 0  0.2999999999999998 -1 0  0.3999999999999999 -1 0  0.5 -1 0  0.6000000000000001 -1 0  0.7000000000000002 -1 0  0.7999999999999998 -1 0  0.8999999999999999 -1 0  1 -1 0  1.1 -1 0  1.2 -1 0  1.3 -1 0  1.4 -1 0  1.5 -1 0  1.6 -1 0  1.7 -1 0  1.8 -1 0  1.9 -1 0  2 -1 0  -2 -0.8999999999999999 0  -1.9 -0.8999999999999999 0  -1.8 -0.8999999999999999 0  -1.7 -0.8999999999999999 0  -1.6 -0.8999999999999999 0  -1.5 -0.8999999999999999 0  -1.4 -0.8999999999999999 0  -1.3 -0.8999999999999999 0  -1.2 -0.8999999999999999 0  -1.1 -0.8999999999999999 0  -1 -0.8999999999999999 0  -0.8999999999999999 -0.8999999999999999 0  -0.8 -0.8999999999999999 0  -0.7 -0.8999999999999999 0  -0.6000000000000001 -0.8999999999999999 0  -0.5 -0.8999999999999999 0  -0.3999999999999999 -0.8999999999999999 0  -0.3 -0.8999999999999999 0  -0.2 -0.8999999999999999 0  -0.1000000000000001 -0.8999999999999999 0  0 -0.8999999999999999 0  0.1000000000000001 -0.8999999999999999 0  0.2000000000000002 -0.8999999999999999 0  0.2999999999999998 -0.8999999999999999 0  0.3999999999999999 -0.8999999999999999 0  0.5 -0.8999999999999999 0  0.6000000000000001 -0.8999999999999999 0  0.7000000000000002 -0.8999999999999999 0  0.7999999999999998 -0.8999999999999999 0  0.8999999999999999 -0.8999999999999999 0  1 -0.8999999999999999 0  1.1 -0.8999999999999999 0  1.2 -0.8999999999999999 0  1.3 -0.8999999999999999 0  1.4 -0.8999999999999999 0  1.5 -0.8999999999999999 0  1.6 -0.8999999999999999 0  1.7 -0.8999999999999999 0  1.8 -0.8999999999999999 0  1.9 -0.8999999999999999 0  2 -0.8999999999999999 0  -2 -0.8 0  -1.9 -0.8 0  -1.8 -0.8 0  -1.7 -0.8 0  -1.6 -0.8 0  -1.5 -0.8 0  -1.4 -0.8 0  -1.3 -0.8 0  -1.2 -0.8 0  -1.1 -0.8 0  -1 -0.8 0  -0.8999999999999999 -0.8 0  -0.8 -0.8 0  -0.7 -0.8 0  -0.6000000000000001 -0.8 0  -0.5 -0.8 0  -0.3999999999999999 -0.8 0  -0.3 -0.8 0  -0.2 -0.8 0  -0.1000000000000001 -0.8 0  0 -0.8 0  0.1000000000000001 -0.8 0  0.2000000000000002 -0.8 0  0.2999999999999998 -0.8 0  0.3999999999999999 -0.8 0  0.5 -0.8 0  0.6000000000000001 -0.8 0  0.7000000000000002 -0.8 0  0.7999999999999998 -0.8 0  0.8999999999999999 -0.8 0  1 -0.8 0  1.1 -0.8 0  1.2 -0.8 0  1.3 -0.8 0  1.4 -0.8 0  1.5 -0.8 0  1.6 -0.8 0  1.7 -0.8 0  1.8 -0.8 0  1.9 -0.8 0  2 -0.8 0  -2 -0.7 0  -1.9 -0.7 0  -1.8 -0.7 0  -1.7 -0.7 0  -1.6 -0.7 0  -1.5 -0.7 0  -1.4 -0.7 0  -1.3 -0.7 0  -1.2 -0.7 0  -1.1 -0.7 0  -1 -0.7 0  -0.8999999999999999 -0.7 0  -0.8 -0.7 0  -0.7 -0.7 0  -0.6000000000000001 -0.7 0  -0.5 -0.7 0  -0.3999999999999999 -0.7 0  -0.3 -0.7 0  -0.2 -0.7 0  -0.1000000000000001 -0.7 0  0 -0.7 0  0.1000000000000001 -0.7 0  0.2000000000000002 -0.7 0  0.2999999999999998 -0.7 0  0.3999999999999999 -0.7 0  0.5 -0.7 0  0.600000000000000
[...]
<PointData  Scalars="f_1726"> 
<DataArray  type="Float64"  Name="f_1726"  format="ascii">0.0000000000000000e+00  0.0000000000000000e+00  0.0000000000000000e+00  0.0000000000000000e+00  0.0000000000000000e+00  0.0000000000000000e+00  0.0000000000000000e+00  0.0000000000000000e+00  0.0000000000000000e+00  0.0000000000000000e+00  0.0000000000000000e+00  0.0000000000000000e+00  0.0000000000000000e+00  0.0000000000000000e+00  0.0000000000000000e+00  0.0000000000000000e+00  0.0000000000000000e+00  0.0000000000000000e+00  0.0000000000000000e+00  0.0000000000000000e+00  0.0000000000000000e+00  0.0000000000000000e+00  0.0000000000000000e+00  0.0000000000000000e+00  0.0000000000000000e+00  0.0000000000000000e+00  0.0000000000000000e+00  0.0000000000000000e+00  0.0000000000000000e+00  0.0000000000000000e+00  0.0000000000000000e+00  0.0000000000000000e+00  0.0000000000000000e+00  0.0000000000000000e+00  0.0000000000000000e+00  0.0000000000000000e+00  0.0000000000000000e+00  0.0000000000000000e+00  0.0000000000000000e+00  0.0000000000000000e+00  0.0000000000000000e+00  0.0000000000000000e+00  -2.7517135621753826e-11  -3.2067347784573411e-11  2.1072366364261286e-10  -5.0778428243616273e-11  -1.0672417535729281e-09  5.7499868443612660e-10  5.2511342249776987e-09  7.2246487595935902e-10  -2.1796504687342157e-08  -4.3492015564842450e-08  -3.8336203822550712e-08  -1.3213394344771782e-08  3.5760221008694678e-09  3.6228841072099791e-09  -3.4387835238605288e-10  -6.9439543701582037e-10  1.1633792149176363e-10  1.0687697138882408e-10  -4.1560286683046821e-11  -7.5929338511152077e-12  9.0485040344049939e-12  -1.7750406850687555e-12  -7.7386395071737184e-13  5.7806532032852991e-13  -1.2690628972616579e-13  -2.8832031796042981e-14  3.1847027852411309e-14  -1.1423964567035157e-14  1.3408268443399030e-15  8.5837095305143084e-16  -6.3976197236964547e-16  2.3975308817016104e-16  -5.3020452796917940e-17  4.3898194803733549e-19  6.2166001739016145e-18  -3.7395223877690970e-18  1.5214968468393957e-18  -5.0436151049942502e-19  1.5987930234785687e-19  0.0000000000000000e+00  0.0000000000000000e+00  -3.2067347784573430e-11  2.3061552470720624e-10  -2.0515522270463382e-10  -1.0102678527219549e-09  2.1215463452236334e-09  3.9651259284926679e-09  -1.1423539796649620e-08  -2.2314647507697015e-08  3.3272732390088348e-08  1.4260652243636502e-07  1.8617153574815822e-07  1.0903542533062322e-07  8.8189870893296549e-09  -2.1136877803535972e-08  -4.8044587027241086e-09  3.9242264481566928e-09  6.6391463779229850e-10  -7.8609236652993642e-10  3.5888224869978415e-11  1.2323185996479006e-10  -4.1529719827838548e-11  -6.0060811574568055e-12  8.6627468341768910e-12  -2.5057509469632407e-12  -2.3343420862603289e-13  4.7034138561487456e-13  -1.8757162543710286e-13  2.6088982689418206e-14  1.2416130885670930e-14  -1.0000881440896787e-14  3.7675918391839674e-15  -8.0440113309115689e-16  -1.5020848091397213e-17  1.0606908575114099e-16  -6.0173845656269322e-17  2.3524561448843099e-17  -7.4389017023496798e-18  2.0207413299425542e-18  -5.0436151049942550e-19  0.0000000000000000e+00  0.0000000000000000e+00  2.1072366364261302e-10  -2.0515522270463384e-10  -9.2363808883728412e-10  2.7354070613500683e-09  1.5091264320590564e-09  -1.6227925676154133e-08  1.0069439010474771e-09  8.1065765020643213e-08  3.0786208706787944e-08  -3.2975471868296993e-07  -7.0176702049693168e-07  -6.2207034495796572e-07  -2.0187617922957030e-07  6.6330754671639510e-08  5.4032547906279192e-08  -9.6013344990969042e-09  -9.6692017293196867e-09  2.8535256881420884e-09  1.1441480051440501e-09  -7.5304830313207335e-10  3.0675553681349610e-11  1.0951347777009198e-10  -4.4916607519390117e-11  1.3352645271979123e-12  6.0766965472474153e-12  -2.9463972388249067e-12  5.4276506130669806e-13  1.3785919573161127e-13  -1.4425294642640068e-13  5.8456541330262268e-14  -1.3369108383975143e-14  1.5369533356544618e-16  1.5410580764441882e-15  -9.1383990686884668e-16  3.6281539810835714e-16  -1.1584192264944472e-16  3.1391450383136511e-17  -7.4389017023496459e-18  1.5214968468393907e-18  0.0000000000000000e+00  0.0000000000000000e+00  -5.0778428243615853e-11  -1.0102678527219557e-09  2.7354070613500699e-09  5.1336101200483778e-10  -1.6621460050187296e-08  1.8927073438695216e-08  7.2547337183554236e-08  -1.3231041023235506e-07  -3.6555199415143765e-07  3.9744221918312026e-07  2.1118302540152289e-06  2.8464162186660878e-06  1.6306447844524915e-06  7.5234335736520328e-08  -3.2382941749116647e-07  -4.5794993042185704e-08  6.1146823641754597e-08  1.8402465507455237e-09  -1.0880719295460648e-08  2.2659296500615742e-09  1.1157018735121041e-09  -7.2868445696726463e-10  9.7770880078754024e-11  7.0131821042210528e-11  -4.4757140090039533e-11  1.0520023877792781e-11  1.1838532444315662e-12  -2.0341748294359987e-12  9.0515986746993414e-13  -2.2373593391479893e-13  9.4479402342128172e-15  2.2148829075716963e-14  -1.3939093586646510e-14  5.6459569430527699e-15  -1.8185014401270141e-15  4.9460707966823735e-16  -1.1584192264944524e-16  2.3524561448843124e-17  -3.7395223877691094e-18  0.0000000000000000e+00  0.0000000000000000e+00  -1.0672417535729292e-09  2.1215463452236326e-09  1.5091264320590620e-09  -1.6621460050187312e-08  2.4720811493711887e-08  5.4687667240619246e-08  -2.0889686601377081e-07  -1.1612671674800558e-07  1.1269564071553532e-06  7.7592424711763342e-07  -4.5898069447569801e-06  -1.0608362374307657e-05  -9.4549812873655325e-06  -2.8243250310645508e-06  1.1490855866707056e-06  7.1992452742111790e-07  -2.0797857158853381e-07  -1.1086278197342614e-07  5.4417750219577507e-08  5.8584442073142374e-09  -1.0491804591287491e-08  2.5811201664144789e-09  6.4189011711613991e-10  -6.4813951131361140e-10  1.9168665433483000e-10  2.5156928958256236e-12  -2.7775371226390176e-11  1.3885569786128627e-11  -3.7226839361072685e-12  2.6366463186032743e-13  3.1388975051707497e-13  -2.1224346673884211e-13  8.7901771455566617e-14  -2.8566929667545864e-14  7.7868990952254609e-15  -1.8185014401270106e-15  3.6281539810835788e-16  -6.0173845656269186e-17  6.2166001739016014e-18  0.0000000000000000e+00  0.0000000000000000e+00  5.7499868443612805e-10  3.9651259284926736e-09  -1.6227925676154139e-08  1.8927073438695200e-08  5.4687667240619339e-08  -2.2565316930295959e-07  6.1108022410390858e-08  1.1894719257816188e-06  -1.2778162556758801e-06  -5.8105992036844421e-06  4.2266228982313808e-06  3.1081341708424722e-05  4.3524866872628319e-05  2.4246929735853655e-05  1.1844408589406463e-07  -4.8671458659779175e-06  -2.2942986170628146e-07  8.9106850500234281e-07  -9.9834090242994550e-08  -1.2562930500912976e-07  5.2081347585552331e-08  2.1563990308085291e-09  -8.7426233886485293e-09  3.3108326380813256e-09  -2.1926206449672212e-10  -3.6090041325695912e-10  2.1023613265019142e-10  -6.1521363091564864e-11  6.0384449554545064e-12  4.3569464547264913e-12  -3.2214712596199913e-12  1.3685147503866638e-12  -4.4919937218447151e-13  1.2272272592839544e-13  -2.8566929667545857e-14  5.6459569430527589e-15  -9.1383990686884845e-16  1.0606908575114085e-16  4.3898194803729928e-19  0.0000000000000000e+00  0.0000000000000000e+00  5.2511342249777037e-09  -1.1423539796649636e-08  1.0069439010474677e-09  7.2547337183554302e-08  -2.0889686601377081e-07  6.1108022410390369e-08  1.1316329467174441e-06  -2.2586269564590726e-06  -3.5869532704913590e-06  1.4805052618486055e-05  1.6460020716479061e-05  -6.2669583972462217e-05  -1.6086734143216949e-04  -1.4421959314917920e-04  -3.8637639690989208e-05  1.9664954352802328e-05  8.9721708018353080e-06  -3.9602851969717341e-06  -9.7696110605820882e-07  8.7423844543060799e-07  -9.2940226134767690e-08  -1.0449850282764967e-07  5.4115941233140648e-08  -7.4945761564576535e-09  -4.3127227748848515e-09  3.1259941248874360e-09  -1.0088754945608658e-09  1.2613963815670859e-10  5.8675321364739027e-11  -4.8695427081549811e-11  2.1304516724420407e-11  -7.0718121726350684e-12  1.9368844601595666e-12  -4.4919937218447216e-13  8.7901771455566718e-14  -1.3939093586646520e-14  1.5410580764441959e-15  -1.5020848091397971e-17  -5.3020452796917761e-17  0.0000000000000000e+00  0.0000000000000000e+00  7.2246487595935261e-10  -2.2314647507697025e-08  8.1065765020643292e-08  -1.3231041023235512e-07  -1.1612671674800588e-07  1.1894719257816195e-06  -2.2586269564590701e-06  -2.4367537325533493e-06  1.7353213017748397e-05  -7.0004856617510198e-06  -8.9389228872594333e-05  3.4111595627321532e-05  4.5614918289178243e-04  6.6942546139296569e-04  3.5975665549485612e-04  -1.6045421787842269e-05  -7.1407269278359379e-05  4.2115296434539007e-06  1.1761501658266939e-05  -3.2304187279144452e-06  -9.5733431162926880e-07  8.2587111975144311e-07  -1.7807764714454308e-07  -4.3497010345849394e-08  4.5280899938196256e-08  -1.6389233422651484e-08  2.4977581623791620e-09  7.5389422363815742e-10  -7.3211822489920050e-10  3.3160489814189151e-10  -1.1148586342157395e-10  3.0619747909138090e-11  -7.0718121726350385e-12  1.3685147503866588e-12  -2.1224346673884120e-13  2.2148829075716818e-14  1.5369533356546373e-16  -8.0440113309115571e-16  2.3975308817016050e-16  0.0000000000000000e+00  0.0000000000000000e+00  -2.1796504687342194e-08  3.3272732390088421e-08  3.0786208706787924e-08  -3.6555199415143781e-07  1.1269564071553540e-06  -1.2778162556758798e-06  -3.5869532704913657e-06  1.7353213017748397e-05  -1.5502197062392207e-05  -7.6272438676788800e-05  1.7592822537616180e-04  3.1934265270532714e-04  -8.2995301802517827e-04  -2.4502986119613029e-03  -2.2107624865706547e-03  -5.0935165442251857e-04  3.3213281547020651e-04  9.7954572326933517e-05  -6.8064796144346403e-05  -2.0012780068028050e-06  1.1360309769187119e-05  -3.6122897351021414e-06  -2.5475683594157320e-07  6.3005248509600782e-07  -2.6298256479774905e-07  4.7741553935596930e-08  8.9280113452840532e-09  -1.0927556830806472e-08  5.1597467834100366e-09  -1.7603796915317759e-09  4.8500153273295974e-10  -1.1148586342157441e-10  2.1304516724420440e-11  -3.2214712596200046e-12  3.1388975051707780e-13  9.4479402342121940e-15  -1.3369108383975081e-14  3.7675918391839477e-15  -6.3976197236964331e-16  0.0000000000000000e+00  0.0000000000000000e+00  -4.3492015564842443e-08  1.4260652243636505e-07  -3.2975471868297035e-07  3.9744221918312089e-07  7.7592424711763289e-07  -5.8105992036844463e-06  1.4805052618486060e-05  -7.0004856617509952e-06  -7.6272438676788814e-05  2.1161349753293172e-04  9.5346242704797020e-05  -1.3112366646652772e-03  8.2275601523568000e-06  6.6617827144122444e-03  1.0377900431238265e-02  5.3157743406806049e-03  -5.6099080078758721e-04  -1.0041261112931339e-03  1.8569645209163231e-04  1.2773611213201682e-04  -6.5280851074708604e-05  3.4015234748848904e-06  8.1915883884089351e-06  -4.1470945703095254e-06  8.8923749030983220e-07  8.9007250506828495e-08  -1.6146576974681016e-07  8.0239198034764533e-08  -2.7849535233327377e-08  7.6999577430403059e-09  -1.7603796915317734e-09  3.3160489814189208e-10  -4.8695427081549714e-11  4.3569464547264849e-12  2.6366463186032839e-13  -2.2373593391479876e-13  5.8456541330262458e-14  -1.0000881440896782e-14  8.5837095305143094e-16  0.0000000000000000e+00  0.0000000000000000e+00  -3.8336203822550666e-08  1.8617153574815809e-07  -7.0176702049693147e-07  2.1118302540152293e-06  -4.5898069447569835e-06  4.2266228982313892e-06  1.6460020716479061e-05  -8.9389228872594400e-05  1.7592822537616177e-04  9.5346242704797034e-05  -1.3165755876534857e-03  1.6658158468508095e-03  5.8227698290344377e-03  -1.0402757295771286e-02  -3.7547237115326024e-02  -3.4115422756817150e-02  -6.2581476410293324e-03  5.5085509535290596e-03  7.3884414379853721e-04  -1.0349745271660046e-03  1.7538318792761047e-04  9.3175387279431277e-05  -6.3677253247771217e-05  1.6217022541802701e-05  4.8491172778691487e-07  -2.3511125136830582e-06  1.2465894537048646e-06  -4.4159203926910862e-07  1.2258795072960725e-07  -2.7849535233327383e-08  5.1597467834100325e-09  -7.3211822489920246e-10  5.8675321364739182e-11  6.0384449554544515e-12  -3.7226839361072555e-12  9.0515986746993000e-13  -1.4425294642640038e-13  1.2416130885670804e-14  1.3408268443399196e-15  0.0000000000000000e+00  0.0000000000000000e+00  -1.3213394344771770e-08  1.0903542533062311e-07  -6.2207034495796519e-07  2.8464162186660865e-06  -1.0608362374307653e-05  3.1081341708424742e-05  -6.2669583972462298e-05  3.4111595627321620e-05  3.1934265270532758e-04  -1.3112366646652776e-03  1.6658158468508095e-03  4.4291746451685385e-03  -1.7685547480659435e-02  -8.7022811606808099e-03  9.6408663850551246e-02  1.6272697572905828e-01  7.7898242486501082e-02  -1.4284379263533695e-02  -1.2967766428914406e-02  4.5416386951920035e-03  7.3225357928565979e-04  -9.3449960292363971e-04  2.8985786135043637e-04  -8.9153373718013196e-06  -3.3472636086009251e-05  1.9335398706805974e-05  -7.0216588312099323e-06  1.9584195721110422e-06  -4.4159203926910931e-07  8.0239198034764705e-08  -1.0927556830806495e-08  7.5389422363816321e-10  1.2613963815670774e-10  -6.1521363091564761e-11  1.3885569786128609e-11  -2.0341748294359943e-12  1.3785919573161117e-13  2.6088982689418222e-14  -1.1423964567035157e-14  0.0000000000000000e+00  0.0000000000000000e+00  3.5760221008694686e-09  8.8189870893296268e-09  -2.0187617922957003e-07  1.6306447844524890e-06  -9.4549812873655240e-06  4.3524866872628312e-05  -1.6086734143216954e-04  4.5614918289178270e-04  -8.2995301802517936e-04  8.2275601523570118e-06  5.8227698290344403e-03  -1.7685547480659439e-02  5.2883061288107715e-03  9.9936904375721933e-02  -1.1577435467201491e-01  -5.8030027516720684e-01  -5.3143632650714734e-01  -6.5047499908396242e-02  8.8448767444217605e-02  -3.2073452976571640e-03  -1.2550175264155229e-02  5.0582060163782460e-03  -4.4453367699990285e-04  -4.5902840431728028e-04  2.9907248977891436e-04  -1.1204262865188091e-04  3.1423843186860259e-05  -7.0216588312099044e-06  1.2465894537048606e-06  -1.6146576974680950e-07  8.9280113452839572e-09  2.4977581623791773e-09  -1.0088754945608629e-09  2.1023613265019075e-10  -2.7775371226390002e-11  1.1838532444315372e-12  5.4276506130670310e-13  -1.8757162543710294e-13  3.1847027852411291e-14  0.0000000000000000e+00  0.0000000000000000e+00  3.6228841072099778e-09  -2.1136877803535972e-08  6.6330754671639523e-08  7.5234335736520434e-08  -2.8243250310645495e-06  2.4246929735853641e-05  -1.4421959314917914e-04  6.6942546139296569e-04  -2.4502986119613033e-03  6.6617827144122514e-03  -1.0402757295771297e-02  -8.7022811606808151e-03  9.9936904375721988e-02  -1.9636124052991188e-01  -2.8784522417197589e-01  1.3688872649329351e+00  2.5971575674744152e+00  1.1208465486559323e+00  -3.2347491506669873e-01  -1.3446547659446209e-01  8.5001207998207651e-02  -1.2691358705889817e-02  -5.8665241670510055e-03  4.6032097389934598e-03  -1.7959722448973236e-03  5.0709213645876259e-04  -1.1204262865188140e-04  1.9335398706806002e-05  -2.3511125136830704e-06  8.9007250506830956e-08  4.7741553935596401e-08  -1.6389233422651441e-08  3.1259941248874174e-09  -3.6090041325695700e-10  2.5156928958253618e-12  1.0520023877792783e-11  -2.9463972388249120e-12  4.7034138561487314e-13  -2.8832031796042804e-14  0.0000000000000000e+00  0.0000000000000000e+00  -3.4387835238605422e-10  -4.8044587027241028e-09  5.4032547906279152e-08  -3.2382941749116641e-07  1.1490855866707060e-06  1.1844408589406047e-07  -3.8637639690989181e-05  3.5975665549485585e-04  -2.2107624865706534e-03  1.0377900431238261e-02  -3.7547237115326045e-02  9.6408663850551315e-02  -1.1577435467201501e-01  -2.8784522417197617e-01  1.5609846263189802e+00  -8.7752833961171850e-01  -9.0877549233853490e+00  -8.3987303245616669e+00  -3.2375223436667511e-01  1.3161687031317491e+00  -3.0777307192874304e-01  -6.3544367632920609e-02  7.0192223996025038e-02  -2.8964833225590982e-02  8.2466573749608446e-03  -1.7959722448973212e-03  2.9907248977891485e-04  -3.3472636086009183e-05  4.8491172778690937e-07  8.8923749030983252e-07  -2.6298256479774868e-07  4.5280899938196329e-08  -4.3127227748848433e-09  -2.1926206449672237e-10  1.9168665433482987e-10  -4.4757140090039449e-11  6.0766965472474202e-12  -2.3343420862603133e-13  -1.2690628972616584e-13  0.0000000000000000e+00  0.0000000000000000e+00  -6.9439543701582047e-10  3.9242264481566945e-09  -9.6013344990969340e-09  -4.5794993042185532e-08  7.1992452742111716e-07  -4.8671458659779167e-06  1.9664954352802334e-05  -1.6045421787842337e-05  -5.0935165442251814e-04  5.3157743406805963e-03  -3.4115422756817129e-02  1.6272697572905828e-01  -5.8030027516720706e-01  1.3688872649329356e+00  -8.7752833961171794e-01  -7.0960399588018808e+00  1.8514623963802947e+01  4.2767715685094501e+01  1.5360328595124539e+01  -6.8551461712009694e+00  -3.3897470263148255e-01  1.0493453611587826e+00  -4.7121063796930324e-01  1.3561371995523600e-01  -2.8964833225590979e-02  4.6032097389934537e-03  -4.5902840431728202e-04  -8.9153373718010434e-06  1.6217022541802630e-05  -4.1470945703095068e-06  6.3005248509600401e-07  -4.3497010345848958e-08  -7.4945761564577279e-09  3.3108326380813364e-09  -6.4813951131361253e-10  7.0131821042210580e-11  1.3352645271979088e-12  -2.5057509469632366e-12  5.7806532032852961e-13  0.0000000000000000e+00  0.0000000000000000e+00  1.1633792149176387e-10  6.6391463779229737e-10  -9.6692017293196801e-09  6.1146823641754610e-08  -2.0797857158853405e-07  -2.2942986170627998e-07  8.9721708018353012e-06  -7.1407269278359365e-05  3.3213281547020662e-04  -5.6099080078758938e-04  -6.2581476410293177e-03  7.7898242486501026e-02  -5.3143632650714723e-01  2.5971575674744156e+00  -9.0877549233853543e+00  1.8514623963802954e+01  7.6508144106175973e+00  -1.4563966347598154e+02  -1.3609212706502652e+02  1.1881729814333966e+01  1.4904571964456641e+01  -7.7689116630382076e+00  2.2691415917707465e+00  -4.7121063796930390e-01  7.0192223996025163e-02  -5.8665241670510316e-03  -4.4453367699989868e-04  2.8985786135043518e-04  -6.3677253247771095e-05  8.1915883884089198e-06  -2.5475683594157283e-07  -1.7807764714454340e-07  5.4115941233140595e-08  -8.7426233886485194e-09  6.4189011711613743e-10  9.7770880078754360e-11  -4.4916607519390310e-11  8.6627468341768958e-12  -7.7386395071737335e-13  0.0000000000000000e+00  0.0000000000000000e+00  1.0687697138882399e-10  -7.8609236652993631e-10  2.8535256881420901e-09  1.8402465507455040e-09  -1.1086278197342607e-07  8.9106850500234303e-07  -3.9602851969717375e-06  4.2115296434539287e-06  9.7954572326933382e-05  -1.0041261112931337e-03  5.5085509535290631e-03  -1.4284379263533717e-02  -6.5047499908396075e-02  1.1208465486559311e+00  -8.3987303245616651e+00  4.2767715685094522e+01  -1.4563966347598151e+02  2.0689563241944836e+02  7.5521474212257340e+02  1.7240347900849795e+02  -1.3110646946347379e+02  3.9151812983091581e+01  -7.7689116630381756e+00  1.0493453611587784e+00  -6.3544367632920068e-02  -1.2691358705889834e-02  5.0582060163782512e-03  -9.3449960292363613e-04  9.3175387279430748e-05  3.4015234748849878e-06  -3.6122897351021495e-06  8.2587111975144618e-07  -1.0449850282764969e-07  2.1563990308085460e-09  2.5811201664144740e-09  -7.2868445696726246e-10  1.0951347777009193e-10  -6.0060811574567497e-12  -1.7750406850687605e-12  0.0000000000000000e+00  0.0000000000000000e+00  -4.1560286683046821e-11  3.5888224869978602e-11  1.1441480051440489e-09  -1.0880719295460644e-08  5.4417750219577527e-08  -9.9834090242994735e-08  -9.7696110605820776e-07  1.1761501658266937e-05  -6.8064796144346417e-05  1.8569645209163261e-04  7.3884414379853612e-04  -1.2967766428914411e-02  8.8448767444217619e-02  -3.2347491506669895e-01  -3.2375223436667233e-01  1.5360328595124523e+01  -1.3609212706502640e+02  7.5521474212257306e+02  -2.4564277373920322e+03  -2.3294504278759309e+03  7.2363944817343929e+02  -1.3110646946347435e+02  1.4904571964456688e+01  -3.3897470263149443e-01  -3.0777307192874054e-01  8.5001207998207109e-02  -1.2550175264155184e-02  7.3225357928564797e-04  1.7538318792761193e-04  -6.5280851074708780e-05  1.1360309769187124e-05  -9.5733431162927092e-07  -9.2940226134767637e-08  5.2081347585552371e-08  -1.049180459128750