<?xml version="1.0"?>
<VTKFile type="UnstructuredGrid"  version="0.1"  >
<UnstructuredGrid>
<Piece  NumberOfPoints="1681" NumberOfCells="3200">
<Points>
<DataArray  type="Float64"  NumberOfComponents="3"  format="ascii">-2 -2 0  -1.9 -2 0  -1.8 -2 0  -1.7 -2 0  -1.6 -2 0  -1.5 -2 0  -1.4 -2 0  -1.3 -2 0  -1.2 -2 0  -1.1 -2 0  -1 -2 0  -0.8999999999999999 -2 0  -0.8 -2 0  -0.7 -2 0  -0.6000000000000001 -2 0  -0.5 -2 0  -0.3999999999999999 -2 0  -0.3 -2 0  -0.2 -2 0  -0.1000000000000001 -2 0  0 -2 0  0.1000000000000001 -2 0  0.2000000000000002 -2 0  0.2999999999999998 -2 0  0.3999999999999999 -2 0  0.5 -2 0  0.6000000000000001 -2 0  0.7000000000000002 -2 0  0.7999999999999998 -2 0  0.8999999999999999 -2 0  1 -2 0  1.1 -2 0  1.2 -2 0  1.3 -2 0  1.4 -2 0  1.5 -2 0  1.6 -2 0  1.7 -2 0  1.8 -2 0  1.9 -2 0  2 -2 0  -2 -1.9 0  -1.9 -1.9 0  -1.8 -1.9 0  -1.7 -1.9 0  -1.6 -1.9 0  -1.5 -1.9 0  -1.4 -1.9 0  -1.3 -1.9 0  -1.2 -1.9 0  -1.1 -1.9 0  -1 -1.9 0  -0.8999999999999999 -1.9 0  -0.8 -1.9 0  -0.7 -1.9 0  -0.6000000000000001 -1.9 0  -0.5 -1.9 0  -0.3999999999999999 -1.9 0  -0.3 -1.9 0  -0.2 -1.9 0  -0.1000000000000001 -1.9 0  0 -1.9 0  0.1000000000000001 -1.9 0  0.2000000000000002 -1.9 0  0.2999999999999998 -1.9 0  0.3999999999999999 -1.9 0  0.5 -1.9 0  0.6000000000000001 -1.9 0  0.7000000000000002 -1.9 0  0.7999999999999998 -1.9 0  0.8999999999999999 -1.9 0  1 -1.9 0  1.1 -1.9 0  1.2 -1.9 0  1.3 -1.9 0  1.4 -1.9 0  1.5 -1.9 0  1.6 -1.9 0  1.7 -1.9 0  1.8 -1.9 0  1.9 -1.9 0  2 -1.9 0  -2 -1.8 0  -1.9 -1.8 0  -1.8 -1.8 0  -1.7 -1.8 0  -1.6 -1.8 0  -1.5 -1.8 0  -1.4 -1.8 0  -1.3 -1.8 0  -1.2 -1.8 0  -1.1 -1.8 0  -1 -1.8 0  -0.8999999999999999 -1.8 0  -0.8 -1.8 0  -0.7 -1.8 0  -0.6000000000000001 -1.8 0  -0.5 -1.8 0  -0.3999999999999999 -1.8 0  -0.3 -1.8 0  -0.2 -1.8 0  -0.1000000000000001 -1.8 0  0 -1.8 0  0.1000000000000001 -1.8 0  0.2000000000000002 -1.8 0  0.2999999999999998 -1.8 0  0.3999999999999999 -1.8 0  0.5 -1.8 0  0.6000000000000001 -1.8 0  0.7000000000000002 -1.8 0  0.7999999999999998 -1.8 0  0.8999999999999999 -1.8 0  1 -1.8 0  1.1 -1.8 0  1.2 -1.8 0  1.3 -1.8 0  1.4 -1.8 0  1.5 -1.8 0  1.6 -1.8 0  1.7 -1.8 0  1.8 -1.8 0  1.9 -1.8 0  2 -1.8 0  -2 -1.7 0  -1.9 -1.7 0  -1.8 -1.7 0  -1.7 -1.7 0  -1.6 -1.7 0  -1.5 -1.7 0  -1.4 -1.7 0  -1.3 -1.7 0  -1.2 -1.7 0  -1.1 -1.7 0  -1 -1.7 0  -0.8999999999999999 -1.7 0  -0.8 -1.7 0  -0.7 -1.7 0  -0.6000000000000001 -1.7 0  -0.5 -1.7 0  -0.3999999999999999 -1.7 0  -0.3 -1.7 0  -0.2 -1.7 0  -0.1000000000000001 -1.7 0  0 -1.7 0  0.1000000000000001 -1.7 0  0.2000000000000002 -1.7 0  0.2999999999999998 -1.7 0  0.3999999999999999 -1.7 0  0.5 -1.7 0  0.6000000000000001 -1.7 0  0.7000000000000002 -1.7 0  0.7999999999999998 -1.7 0  0.8999999999999999 -1.7 0  1 -1.7 0  1.1 -1.7 0  1.2 -1.7 0  1.3 -1.7 0  1.4 -1.7 0  1.5 -1.7 0  1.6 -1.7 0  1.7 -1.7 0  1.8 -1.7 0  1.9 -1.7 0  2 -1.7 0  -2 -1.6 0  -1.9 -1.6 0  -1.8 -1.6 0  -1.7 -1.6 0  -1.6 -1.6 0  -1.5 -1.6 0  -1.4 -1.6 0  -1.3 -1.6 0  -1.2 -1.6 0  -1.1 -1.6 0  -1 -1.6 0  -0.8999999999999999 -1.6 0  -0.8 -1.6 0  -0.7 -1.6 0  -0.6000000000000001 -1.6 0  -0.5 -1.6 0  -0.3999999999999999 -1.6 0  -0.3 -1.6 0  -0.2 -1.6 0  -0.1000000000000001 -1.6 0  0 -1.6 0  0.1000000000000001 -1.6 0  0.2000000000000002 -1.6 0  0.2999999999999998 -1.6 0  0.3999999999999999 -1.6 0  0.5 -1.6 0  0.6000000000000001 -1.6 0  0.7000000000000002 -1.6 0  0.7999999999999998 -1.6 0  0.8999999999999999 -1.6 0  1 -1.6 0  1.1 -1.6 0  1.2 -1.6 0  1.3 -1.6 0  1.4 -1.6 0  1.5 -1.6 0  1.6 -1.6 0  1.7 -1.6 0  1.8 -1.6 0  1.9 -1.6 0  2 -1.6 0  -2 -1.5 0  -1.9 -1.5 0  -1.8 -1.5 0  -1.7 -1.5 0  -1.6 -1.5 0  -1.5 -1.5 0  -1.4 -1.5 0  -1.3 -1.5 0  -1.2 -1.5 0  -1.1 -1.5 0  -1 -1.5 0  -0.8999999999999999 -1.5 0  -0.8 -1.5 0  -0.7 -1.5 0  -0.6000000000000001 -1.5 0  -0.5 -1.5 0  -0.3999999999999999 -1.5 0  -0.3 -1.5 0  -0.2 -1.5 0  -0.1000000000000001 -1.5 0  0 -1.5 0  0.1000000000000001 -1.5 0  0.2000000000000002 -1.5 0  0.2999999999999998 -1.5 0  0.3999999999999999 -1.5 0  0.5 -1.5 0  0.6000000000000001 -1.5 0  0.7000000000000002 -1.5 0  0.7999999999999998 -1.5 0  0.8999999999999999 -1.5 0  1 -1.5 0  1.1 -1.5 0  1.2 -1.5 0  1.3 -1.5 0  1.4 -1.5 0  1.5 -1.5 0  1.6 -1.5 0  1.7 -1.5 0  1.8 -1.5 0  1.9 -1.5 0  2 -1.5 0  -2 -1.4 0  -1.9 -1.4 0  -1.8 -1.4 0  -1.7 -1.4 0  -1.6 -1.4 0  -1.5 -1.4 0  -1.4 -1.4 0  -1.3 -1.4 0  -1.2 -1.4 0  -1.1 -1.4 0  -1 -1.4 0  -0.8999999999999999 -1.4 0  -0.8 -1.4 0  -0.7 -1.4 0  -0.6000000000000001 -1.4 0  -0.5 -1.4 0  -0.3999999999999999 -1.4 0  -0.3 -1.4 0  -0.2 -1.4 0  -0.1000000000000001 -1.4 0  0 -1.4 0  0.1000000000000001 -1.4 0  0.2000000000000002 -1.4 0  0.2999999999999998 -1.4 0  0.3999999999999999 -1.4 0  0.5 -1.4 0  0.6000000000000001 -1.4 0  0.7000000000000002 -1.4 0  0.7999999999999998 -1.4 0  0.8999999999999999 -1.4 0  1 -1.4 0  1.1 -1.4 0  1.2 -1.4 0  1.3 -1.4 0  1.4 -1.4 0  1.5 -1.4 0  1.6 -1.4 0  1.7 -1.4 0  1.8 -1.4 0  1.9 -1.4 0  2 -1.4 0  -2 -1.3 0  -1.9 -1.3 0  -1.8 -1.3 0  -1.7 -1.3 0  -1.6 -1.3 0  -1.5 -1.3 0  -1.4 -1.3 0  -1.3 -1.3 0  -1.2 -1.3 0  -1.1 -1.3 0  -1 -1.3 0  -0.8999999999999999 -1.3 0  -0.8 -1.3 0  -0.7 -1.3 0  -0.6000000000000001 -1.3 0  -0.5 -1.3 0  -0.3999999999999999 -1.3 0  -0.3 -1.3 0  -0.2 -1.3 0  -0.1000000000000001 -1.3 0  0 -1.3 0  0.1000000000000001 -1.3 0  0.2000000000000002 -1.3 0  0.2999999999999998 -1.3 0  0.3999999999999999 -1.3 0  0.5 -1.3 0  0.6000000000000001 -1.3 0  0.7000000000000002 -1.3 0  0.7999999999999998 -1.3 0  0.8999999999999999 -1.3 0  1 -1.3 0  1.1 -1.3 0  1.2 -1.3 0  1.3 -1.3 0  1.4 -1.3 0  1.5 -1.3 0  1.6 -1.3 0  1.7 -1.3 0  1.8 -1.3 0  1.9 -1.3 0  2 -1.3 0  -2 -1.2 0  -1.9 -1.2 0  -1.8 -1.2 0  -1.7 -1.2 0  -1.6 -1.2 0  -1.5 -1.2 0  -1.4 -1.2 0  -1.3 -1.2 0  -1.2 -1.2 0  -1.1 -1.2 0  -1 -1.2 0  -0.8999999999999999 -1.2 0  -0.8 -1.2 0  -0.7 -1.2 0  -0.6000000000000001 -1.2 0  -0.5 -1.2 0  -0.3999999999999999 -1.2 0  -0.3 -1.2 0  -0.2 -1.2 0  -0.1000000000000001 -1.2 0  0 -1.2 0  0.1000000000000001 -1.2 0  0.2000000000000002 -1.2 0  0.2999999999999998 -1.2 0  0.3999999999999999 -1.2 0  0.5 -1.2 0  0.6000000000000001 -1.2 0  0.7000000000000002 -1.2 0  0.7999999999999998 -1.2 0  0.8999999999999999 -1.2 0  1 -1.2 0  1.1 -1.2 0  1.2 -1.2 0  1.3 -1.2 0  1.4 -1.2 0  1.5 -1.2 0  1.6 -1.2 0  1.7 -1.2 0  1.8 -1.2 0  1.9 -1.2 0  2 -1.2 0  -2 -1.1 0  -1.9 -1.1 0  -1.8 -1.1 0  -1.7 -1.1 0  -1.6 -1.1 0  -1.5 -1.1 0  -1.4 -1.1 0  -1.3 -1.1 0  -1.2 -1.1 0  -1.1 -1.1 0  -1 -1.1 0  -0.8999999999999999 -1.1 0  -0.8 -1.1 0  -0.7 -1.1 0  -0.6000000000000001 -1.1 0  -0.5 -1.1 0  -0.3999999999999999 -1.1 0  -0.3 -1.1 0  -0.2 -1.1 0  -0.1000000000000001 -1.1 0  0 -1.1 0  0.1000000000000001 -1.1 0  0.2000000000000002 -1.1 0  0.2999999999999998 -1.1 0  0.3999999999999999 -1.1 0  0.5 -1.1 0  0.6000000000000001 -1.1 0  0.7000000000000002 -1.1 0  0.7999999999999998 -1.1 0  0.8999999999999999 -1.1 0  1 -1.1 0  1.1 -1.1 0  1.2 -1.1 0  1.3 -1.1 0  1.4 -1.1 0  1.5 -1.1 0  1.6 -1.1 0  1.7 -1.1 0  1.8 -1.1 0  1.9 -1.1 0  2 -1.1 0  -2 -1 0  -1.9 -1 0  -1.8 -1 0  -1.7 -1 0  -1.6 -1 0  -1.5 -1 0  -1.4 -1 0  -1.3 -1 0  -1.2 -1 0  -1.1 -1 0  -1 -1 0  -0.8999999999999999 -1 0  -0.8 -1 0  -0.7 -1 0  -0.6000000000000001 -1 0  -0.5 -1 0  -0.3999999999999999 -1 0  -0.3 -1 0  -0.2 -1 0  -0.1000000000000001 -1 0  0 -1 0  0.1000000000000001 -1 0  0.2000000000000002 -1 0  0.2999999999999998 -1 0  0.3999999999999999 -1 0  0.5 -1 0  0.6000000000000001 -1 0  0.7000000000000002 -1 0  0.7999999999999998 -1 0  0.8999999999999999 -1 0  1 -1 0  1.1 -1 0  1.2 -1 0  1.3 -1 0  1.4 -1 0  1.5 -1 0  1.6 -1 0  1.7 -1 0  1.8 -1 0  1.9 -1 0  2 -1 0  -2 -0.8999999999999999 0  -1.9 -0.8999999999999999 0  -1.8 -0.8999999999999999 0  -1.7 -0.8999999999999999 0  -1.6 -0.8999999999999999 0  -1.5 -0.8999999999999999 0  -1.4 -0.8999999999999999 0  -1.3 -0.8999999999999999 0  -1.2 -0.8999999999999999 0  -1.1 -0.8999999999999999 0  -1 -0.8999999999999999 0  -0.8999999999999999 -0.8999999999999999 0  -0.8 -0.8999999999999999 0  -0.7 -0.8999999999999999 0  -0.6000000000000001 -0.8999999999999999 0  -0.5 -0.8999999999999999 0  -0.3999999999999999 -0.8999999999999999 0  -0.3 -0.8999999999999999 0  -0.2 -0.8999999999999999 0  -0.1000000000000001 -0.8999999999999999 0  0 -0.8999999999999999 0  0.1000000000000001 -0.8999999999999999 0  0.2000000000000002 -0.8999999999999999 0  0.2999999999999998 -0.8999999999999999 0  0.3999999999999999 -0.8999999999999999 0  0.5 -0.8999999999999999 0  0.6000000000000001 -0.8999999999999999 0  0.7000000000000002 -0.8999999999999999 0  0.7999999999999998 -0.8999999999999999 0  0.8999999999999999 -0.8999999999999999 0  1 -0.8999999999999999 0  1.1 -0.8999999999999999 0  1.2 -0.8999999999999999 0  1.3 -0.8999999999999999 0  1.4 -0.8999999999999999 0  1.5 -0.8999999999999999 0  1.6 -0.8999999999999999 0  1.7 -0.8999999999999999 0  1.8 -0.8999999999999999 0  1.9 -0.8999999999999999 0  2 -0.8999999999999999 0  -2 -0.8 0  -1.9 -0.8 0  -1.8 -0.8 0  -1.7 -0.8 0  -1.6 -0.8 0  -1.5 -0.8 0  -1.4 -0.8 0  -1.3 -0.8 0  -1.2 -0.8 0  -1.1 -0.8 0  -1 -0.8 0  -0.8999999999999999 -0.8 0  -0.8 -0.8 0  -0.7 -0.8 0  -0.6000000000000001 -0.8 0  -0.5 -0.8 0  -0.3999999999999999 -0.8 0  -0.3 -0.8 0  -0.2 -0.8 0  -0.1000000000000001 -0.8 0  0 -0.8 0  0.1000000000000001 -0.8 0  0.2000000000000002 -0.8 0  0.2999999999999998 -0.8 0  0.3999999999999999 -0.8 0  0.5 -0.8 0  0.6000000000000001 -0.8 0  0.7000000000000002 -0.8 0  0.7999999999999998 -0.8 0  0.8999999999999999 -0.8 0  1 -0.8 0  1.1 -0.8 0  1.2 -0.8 0  1.3 -0.8 0  1.4 -0.8 0  1.5 -0.8 0  1.6 -0.8 0  1.7 -0.8 0  1.8 -0.8 0  1.9 -0.8 0  2 -0.8 0  -2 -0.7 0  -1.9 -0.7 0  -1.8 -0.7 0  -1.7 -0.7 0  -1.6 -0.7 0  -1.5 -0.7 0  -1.4 -0.7 0  -1.3 -0.7 0  -1.2 -0.7 0  -1.1 -0.7 0  -1 -0.7 0  -0.8999999999999999 -0.7 0  -0.8 -0.7 0  -0.7 -0.7 0  -0.6000000000000001 -0.7 0  -0.5 -0.7 0  -0.3999999999999999 -0.7 0  -0.3 -0.7 0  -0.2 -0.7 0  -0.1000000000000001 -0.7 0  0 -0.7 0  0.1000000000000001 -0.7 0  0.2000000000000002 -0.7 0  0.2999999999999998 -0.7 0  0.3999999999999999 -0.7 0  0.5 -0.7 0  0.600000000000000
[...]
<PointData  Scalars="f_1726"> 
<DataArray  type="Float64"  Name="f_1726"  format="ascii">0.0000000000000000e+00  0.0000000000000000e+00  0.0000000000000000e+00  0.0000000000000000e+00  0.0000000000000000e+00  0.0000000000000000e+00  0.0000000000000000e+00  0.0000000000000000e+00  0.0000000000000000e+00  0.0000000000000000e+00  0.0000000000000000e+00  0.0000000000000000e+00  0.0000000000000000e+00  0.0000000000000000e+00  0.0000000000000000e+00  0.0000000000000000e+00  0.0000000000000000e+00  0.0000000000000000e+00  0.0000000000000000e+00  0.0000000000000000e+00  0.0000000000000000e+00  0.0000000000000000e+00  0.0000000000000000e+00  0.0000000000000000e+00  0.0000000000000000e+00  0.0000000000000000e+00  0.0000000000000000e+00  0.0000000000000000e+00  0.0000000000000000e+00  0.0000000000000000e+00  0.0000000000000000e+00  0.0000000000000000e+00  0.0000000000000000e+00  0.0000000000000000e+00  0.0000000000000000e+00  0.0000000000000000e+00  0.0000000000000000e+00  0.0000000000000000e+00  0.0000000000000000e+00  0.0000000000000000e+00  0.0000000000000000e+00  0.0000000000000000e+00  -3.9880701101651713e-12  -4.6475342844488217e-12  3.0540269744254812e-11  -7.3593390933988991e-12  -1.5467579897304690e-10  8.3334802659153442e-11  7.6104910536339421e-10  1.0470714020030167e-10  -3.1589766480252601e-09  -6.3033162204522997e-09  -5.5560822428424657e-09  -1.9150228339373672e-09  5.1827439635443499e-10  5.2506612676409380e-10  -4.9838435131289177e-11  -1.0063902453599103e-10  1.6860904192849733e-11  1.5489724690813625e-11  -6.0233499361584586e-12  -1.1004471161654978e-12  1.3114035187874530e-12  -2.5725739763601996e-13  -1.1215642985567336e-13  8.3779251496756289e-14  -1.8392582273308065e-14  -4.1786385691332460e-15  4.6156032234471475e-15  -1.6556800190119197e-15  1.9432660195168407e-16  1.2440406546501659e-16  -9.2720973385422574e-17  3.4747516525496323e-17  -7.6842766606728333e-18  6.3621839494289460e-20  9.0097449389990270e-19  -5.4197056212367888e-19  2.2051118186857312e-19  -7.3097327148773712e-20  2.3171374945853096e-20  0.0000000000000000e+00  0.0000000000000000e+00  -4.6475342844488201e-12  3.3423205586041613e-11  -2.9733233242700500e-11  -1.4641854741290808e-10  3.0747660959405041e-10  5.7466737875003709e-10  -1.6556184568601933e-09  -3.2340713062432579e-09  4.8222311854121225e-09  2.0668023643909286e-08  2.6981919458717817e-08  1.5802550333997669e-08  1.2781395308123483e-09  -3.0633766446190478e-09  -6.9631223290223200e-10  5.6873979975739473e-10  9.6221429405879803e-11  -1.1392869933412174e-10  5.2012956173279454e-12  1.7860045613072999e-11  -6.0189198688980670e-12  -8.7046388376062698e-13  1.2554955645164243e-12  -3.6315954510912316e-13  -3.3831718639187592e-14  6.8166776052862997e-14  -2.7184835049816492e-14  3.7810873013262438e-15  1.7994751034296382e-15  -1.4494319793305594e-15  5.4603867959546565e-16  -1.1658219661961231e-16  -2.1769778703011075e-18  1.5372637483468955e-17  -8.7210209149001883e-18  3.4094246457362742e-18  -1.0781231716626881e-18  2.9286689607141900e-19  -7.3097327148773796e-20  0.0000000000000000e+00  0.0000000000000000e+00  3.0540269744254792e-11  -2.9733233242700494e-11  -1.3386325907373955e-10  3.9644370295143628e-10  2.1871833241963603e-10  -2.3519201354623925e-09  1.4593680569012105e-10  1.1748895629271723e-08  4.4618582557621013e-09  -4.7791490921963187e-08  -1.0170739124936241e-07  -9.0156918338031644e-08  -2.9258000084257437e-08  9.6133443439344562e-09  7.8309600331637168e-09  -1.3915254719780882e-09  -1.4013614983738449e-09  4.1356268551699769e-10  1.6582185455788623e-10  -1.0913960924251936e-10  4.4458209760991319e-12  1.5871834676348682e-11  -6.5097829352735107e-12  1.9352045297447317e-13  8.8069820208549453e-13  -4.2702259865817685e-13  7.8663170018611450e-14  1.9979991575649592e-14  -2.0906640569507063e-14  8.4721312722154437e-15  -1.9375905355330620e-15  2.2275129733330988e-17  2.2334619915297684e-16  -1.3244320441472933e-16  5.2582989181466098e-17  -1.6789018870739252e-17  4.5495761880371403e-18  -1.0781231716626836e-18  2.2051118186857254e-19  0.0000000000000000e+00  0.0000000000000000e+00  -7.3593390933988942e-12  -1.4641854741290793e-10  3.9644370295143618e-10  7.4401628710298356e-11  -2.4089552388240774e-09  2.7431087628934872e-09  1.0514316278075128e-08  -1.9175803745147105e-08  -5.2979605204042890e-08  5.7601469012961736e-08  3.0606845238363042e-07  4.1253230709730710e-07  2.3633003865528177e-07  1.0903744115421342e-08  -4.6932734512808571e-08  -6.6370877208011762e-09  8.8620350260744235e-09  2.6670771134190857e-10  -1.5769472519159808e-09  3.2840214306330602e-10  1.6169914466283801e-10  -1.0560854670773576e-10  1.4169975023794664e-11  1.0164234501529356e-11  -6.4866712532554446e-12  1.5246715123968741e-12  1.7157635169000456e-13  -2.9481381883769600e-13  1.3118520263148806e-13  -3.2426143581242062e-14  1.3692939762561562e-15  3.2100391707265304e-15  -2.0201987321584783e-15  8.1827092897226374e-16  -2.6355618325802446e-16  7.1683613360599537e-17  -1.6789018870739336e-17  3.4094246457362796e-18  -5.4197056212368110e-19  0.0000000000000000e+00  0.0000000000000000e+00  -1.5467579897304701e-10  3.0747660959405031e-10  2.1871833241963564e-10  -2.4089552388240765e-09  3.5827976709596323e-09  7.9259067555183437e-09  -3.0275511190855560e-08  -1.6830294199960815e-08  1.6333026898636721e-07  1.1245502948482473e-07  -6.6520266278526288e-07  -1.5374744480792278e-06  -1.3703144390691571e-06  -4.0933062192982603e-07  1.6653746033799479e-07  1.0433896641164842e-07  -3.0142422391208680e-08  -1.6067389905526805e-08  7.8867875674371930e-09  8.4906679810051648e-10  -1.5205816792620267e-09  3.7408283797839809e-10  9.3029406304105036e-11  -9.3935133649718462e-11  2.7781227929332530e-11  3.6460043596490710e-13  -4.0254963056234122e-12  2.0124415050996039e-12  -5.3953015819875504e-13  3.8213026671228024e-14  4.5492174372056373e-14  -3.0760535450130676e-14  1.2739640934697411e-14  -4.1402172054661377e-15  1.1285585810752202e-15  -2.6355618325802412e-16  5.2582989181466227e-17  -8.7210209149001729e-18  9.0097449389990174e-19  0.0000000000000000e+00  0.0000000000000000e+00  8.3334802659153661e-11  5.7466737875003761e-10  -2.3519201354623925e-09  2.7431087628934905e-09  7.9259067555183371e-09  -3.2704009317370115e-08  8.8564115471931492e-09  1.7239066955574132e-07  -1.8519445067223751e-07  -8.4213260147774527e-07  6.1256624523268442e-07  4.5046320065815943e-06  6.3080773743914877e-06  3.5141177872593541e-06  1.7166151490947319e-08  -7.0539751000011130e-07  -3.3251366945577398e-08  1.2914293550597824e-07  -1.4468996945992529e-08  -1.8207508337882788e-08  7.5481717449857951e-09  3.1252782406457715e-10  -1.2670721073575870e-09  4.7984037529157205e-10  -3.1777743793260218e-11  -5.2305449616583383e-11  3.0469611671213266e-11  -8.9163171870303493e-12  8.7515438269991540e-13  6.3145409342490877e-13  -4.6688919289586269e-13  1.9833942189181072e-13  -6.5102655099668880e-14  1.7786256601726644e-14  -4.1402172054661385e-15  8.1827092897226266e-16  -1.3244320441472968e-16  1.5372637483468955e-17  6.3621839494282948e-20  0.0000000000000000e+00  0.0000000000000000e+00  7.6104910536339483e-10  -1.6556184568601956e-09  1.4593680569012048e-10  1.0514316278075133e-08  -3.0275511190855574e-08  8.8564115471932071e-09  1.6400804184408547e-07  -3.2734376058919342e-07  -5.1985865539351048e-07  2.1457025410933264e-06  2.3855577678729995e-06  -9.0827293251946980e-06  -2.3314571868453844e-05  -2.0901806664925160e-05  -5.5997694708147311e-06  2.8500501560261929e-06  1.3003405110889789e-06  -5.7396580948224200e-07  -1.4159138652442079e-07  1.2670374785022256e-07  -1.3469866303491211e-08  -1.5145012235739323e-08  7.8430462633155384e-09  -1.0861920938564742e-09  -6.2504473679119990e-10  4.5305165135574324e-10  -1.4621675235541306e-10  1.8281471136920531e-11  8.5038391551939165e-12  -7.0574488535111153e-12  3.0876726243630659e-12  -1.0249207307788314e-12  2.8071348444782099e-13  -6.5102655099668969e-14  1.2739640934697433e-14  -2.0201987321584814e-15  2.2334619915297807e-16  -2.1769778703012597e-18  -7.6842766606728056e-18  0.0000000000000000e+00  0.0000000000000000e+00  1.0470714020030172e-10  -3.2340713062432592e-09  1.1748895629271733e-08  -1.9175803745147119e-08  -1.6830294199960842e-08  1.7239066955574138e-07  -3.2734376058919379e-07  -3.5315974962695109e-07  2.5150085060706855e-06  -1.0145833493729622e-06  -1.2955218767598826e-05  4.9438079893684738e-06  6.6109894106450594e-05  9.7020115402355277e-05  5.2139684320114616e-05  -2.3254697696986484e-06  -1.0349085754129465e-05  6.1037877343072598e-07  1.7045994124806714e-06  -4.6818595326210338e-07  -1.3874686690230792e-07  1.1969385087180268e-07  -2.5808868758282057e-08  -6.3040401161772855e-09  6.5625799896897412e-09  -2.3752985354233093e-09  3.6200114745702397e-10  1.0926220885943660e-10  -1.0610620414718847e-10  4.8059638213890344e-11  -1.6157693363477994e-11  4.4377330219170216e-12  -1.0249207307788270e-12  1.9833942189180999e-13  -3.0760535450130556e-14  3.2100391707265115e-15  2.2275129733332964e-17  -1.1658219661961204e-16  3.4747516525496225e-17  0.0000000000000000e+00  0.0000000000000000e+00  -3.1589766480252638e-09  4.8222311854121266e-09  4.4618582557621029e-09  -5.2979605204042930e-08  1.6333026898636734e-07  -1.8519445067223748e-07  -5.1985865539351101e-07  2.5150085060706885e-06  -2.2467399803612373e-06  -1.1054196813851376e-05  2.5497352151813647e-05  4.6282465793719908e-05  -1.2028544211596372e-04  -3.5512281473137067e-04  -3.2040674271332191e-04  -7.3820550819241179e-05  4.8136149495683337e-05  1.4196597619056910e-05  -9.8646597083731152e-06  -2.9004606841242649e-07  1.6464545022228206e-06  -5.2353067993125444e-07  -3.6922016039185534e-08  9.1313773286062961e-08  -3.8114174403216206e-08  6.9192036148149654e-09  1.2939404623639200e-09  -1.5837354357340243e-09  7.4780428478430925e-10  -2.5513257363857132e-10  7.0291477378463193e-11  -1.6157693363478068e-11  3.0876726243630707e-12  -4.6688919289586481e-13  4.5492174372056871e-14  1.3692939762560562e-15  -1.9375905355330518e-15  5.4603867959546270e-16  -9.2720973385422266e-17  0.0000000000000000e+00  0.0000000000000000e+00  -6.3033162204522980e-09  2.0668023643909282e-08  -4.7791490921963207e-08  5.7601469012961783e-08  1.1245502948482482e-07  -8.4213260147774622e-07  2.1457025410933285e-06  -1.0145833493729631e-06  -1.1054196813851393e-05  3.0669233746532235e-05  1.3818571303146369e-05  -1.9003808468968003e-04  1.1924237745610571e-06  9.6549498788526839e-04  1.5040735011449453e-03  7.7041742468615746e-04  -8.1304634154214634e-05  -1.4552842222861076e-04  2.6913065383334995e-05  1.8512848785746364e-05  -9.4611813713405721e-06  4.9298423664741266e-07  1.1872103715898177e-06  -6.0104017101274020e-07  1.2887756577175693e-07  1.2899858481405492e-08  -2.3401302337333322e-08  1.1629100926227623e-08  -4.0362449265330151e-09  1.1159581341118068e-09  -2.5513257363857106e-10  4.8059638213890474e-11  -7.0574488535111072e-12  6.3145409342490857e-13  3.8213026671228100e-14  -3.2426143581242037e-14  8.4721312722154674e-15  -1.4494319793305584e-15  1.2440406546501671e-16  0.0000000000000000e+00  0.0000000000000000e+00  -5.5560822428424616e-09  2.6981919458717803e-08  -1.0170739124936240e-07  3.0606845238363026e-07  -6.6520266278526288e-07  6.1256624523268431e-07  2.3855577678730020e-06  -1.2955218767598833e-05  2.5497352151813667e-05  1.3818571303146430e-05  -1.9081185705764833e-04  2.4142739561210853e-04  8.4389649535999782e-04  -1.5076760170404668e-03  -5.4417369640951127e-03  -4.9443626568657986e-03  -9.0699598589248350e-04  7.9835662076411021e-04  1.0708099441949573e-04  -1.4999929619527756e-04  2.5418359643750056e-05  1.3503948307701087e-05  -9.2287712596834909e-06  2.3503399395869268e-06  7.0278461909629735e-08  -3.4074773153504181e-07  1.8066873704824370e-07  -6.4000121121028653e-08  1.7766723575133066e-08  -4.0362449265330151e-09  7.4780428478430894e-10  -1.0610620414718886e-10  8.5038391551939537e-12  8.7515438269990612e-13  -5.3953015819875272e-13  1.3118520263148743e-13  -2.0906640569507016e-14  1.7994751034296204e-15  1.9432660195168624e-16  0.0000000000000000e+00  0.0000000000000000e+00  -1.9150228339373647e-09  1.5802550333997659e-08  -9.0156918338031591e-08  4.1253230709730694e-07  -1.5374744480792272e-06  4.5046320065815952e-06  -9.0827293251947014e-06  4.9438079893684687e-06  4.6282465793719976e-05  -1.9003808468968030e-04  2.4142739561210837e-04  6.4192215563068332e-04  -2.5631738804153016e-03  -1.2612252911864891e-03  1.3972548449388340e-02  2.3584089454048655e-02  1.1289825247989001e-02  -2.0702411314252574e-03  -1.8794238761490958e-03  6.5822161799231570e-04  1.0612582111569633e-04  -1.3543742290657266e-04  4.2009222505492720e-05  -1.2921036180237896e-06  -4.8512033126557454e-06  2.8022875167929443e-06  -1.0176519857825547e-06  2.8383457733602274e-07  -6.4000121121028785e-08  1.1629100926227649e-08  -1.5837354357340289e-09  1.0926220885943770e-10  1.8281471136920386e-11  -8.9163171870303348e-12  2.0124415050996011e-12  -2.9481381883769550e-13  1.9979991575649608e-14  3.7810873013262406e-15  -1.6556800190119189e-15  0.0000000000000000e+00  0.0000000000000000e+00  5.1827439635443623e-10  1.2781395308123396e-09  -2.9258000084257398e-08  2.3633003865528147e-07  -1.3703144390691560e-06  6.3080773743914852e-06  -2.3314571868453841e-05  6.6109894106450594e-05  -1.2028544211596374e-04  1.1924237745609010e-06  8.4389649535999934e-04  -2.5631738804153033e-03  7.6643644511606315e-04  1.4483897841756880e-02  -1.6779226215177433e-02  -8.4103164447297984e-02  -7.7021291690099705e-02  -9.4273616880590650e-03  1.2818917294806451e-02  -4.6484191125086596e-04  -1.8189022119273082e-03  7.3308793844909718e-04  -6.4426453922173920e-05  -6.6527180886056264e-05  4.3344702503012485e-05  -1.6238385583914311e-05  4.5542708907885799e-06  -1.0176519857825505e-06  1.8066873704824322e-07  -2.3401302337333223e-08  1.2939404623639078e-09  3.6200114745702562e-10  -1.4621675235541275e-10  3.0469611671213176e-11  -4.0254963056233887e-12  1.7157635169000072e-13  7.8663170018612132e-14  -2.7184835049816501e-14  4.6156032234471460e-15  0.0000000000000000e+00  0.0000000000000000e+00  5.2506612676409390e-10  -3.0633766446190491e-09  9.6133443439344611e-09  1.0903744115421273e-08  -4.0933062192982560e-07  3.5141177872593524e-06  -2.0901806664925150e-05  9.7020115402355250e-05  -3.5512281473137067e-04  9.6549498788526882e-04  -1.5076760170404672e-03  -1.2612252911864961e-03  1.4483897841756899e-02  -2.8458717684743687e-02  -4.1717530147525037e-02  1.9839341058263996e-01  3.7640714530060704e-01  1.6244476460851989e-01  -4.6881356326414651e-02  -1.9488138424972823e-02  1.2319261045382706e-02  -1.8393639878829017e-03  -8.5023783008438577e-04  6.6714513542565361e-04  -2.6029101745964203e-04  7.3493077924587257e-05  -1.6238385583914382e-05  2.8022875167929498e-06  -3.4074773153504377e-07  1.2899858481405864e-08  6.9192036148148860e-09  -2.3752985354233031e-09  4.5305165135574071e-10  -5.2305449616583092e-11  3.6460043596487398e-13  1.5246715123968741e-12  -4.2702259865817751e-13  6.8166776052862807e-14  -4.1786385691332192e-15  0.0000000000000000e+00  0.0000000000000000e+00  -4.9838435131289358e-11  -6.9631223290223189e-10  7.8309600331637201e-09  -4.6932734512808591e-08  1.6653746033799506e-07  1.7166151490945803e-08  -5.5997694708147252e-06  5.2139684320114569e-05  -3.2040674271332169e-04  1.5040735011449455e-03  -5.4417369640951153e-03  1.3972548449388351e-02  -1.6779226215177443e-02  -4.1717530147525092e-02  2.2623416245870520e-01  -1.2718055360608499e-01  -1.3170921667372861e+00  -1.2172315400532741e+00  -4.6921548329914485e-02  1.9075288711173058e-01  -4.4605681555837225e-02  -9.2095120912896039e-03  1.0172988727186581e-02  -4.1978855365155960e-03  1.1951915431144854e-03  -2.6029101745964165e-04  4.3344702503012587e-05  -4.8512033126557394e-06  7.0278461909629139e-08  1.2887756577175700e-07  -3.8114174403216167e-08  6.5625799896897544e-09  -6.2504473679119897e-10  -3.1777743793260270e-11  2.7781227929332530e-11  -6.4866712532554349e-12  8.8069820208549534e-13  -3.3831718639187403e-14  -1.8392582273308074e-14  0.0000000000000000e+00  0.0000000000000000e+00  -1.0063902453599115e-10  5.6873979975739556e-10  -1.3915254719780932e-09  -6.6370877208011596e-09  1.0433896641164842e-07  -7.0539751000011204e-07  2.8500501560261975e-06  -2.3254697696986755e-06  -7.3820550819241003e-05  7.7041742468615670e-04  -4.9443626568657969e-03  2.3584089454048645e-02  -8.4103164447297984e-02  1.9839341058264001e-01  -1.2718055360608468e-01  -1.0284320740805288e+00  2.6833322859599407e+00  6.1983431323763920e+00  2.2261789233652540e+00  -9.9351923550382093e-01  -4.9127747097267770e-02  1.5208206724719744e-01  -6.8292757164434351e-02  1.9654553821155177e-02  -4.1978855365155951e-03  6.6714513542565285e-04  -6.6527180886056508e-05  -1.2921036180237536e-06  2.3503399395869188e-06  -6.0104017101273808e-07  9.1313773286062432e-08  -6.3040401161772218e-09  -1.0861920938564845e-09  4.7984037529157350e-10  -9.3935133649718592e-11  1.0164234501529352e-11  1.9352045297447484e-13  -3.6315954510912290e-13  8.3779251496756276e-14  0.0000000000000000e+00  0.0000000000000000e+00  1.6860904192849795e-11  9.6221429405879687e-11  -1.4013614983738457e-09  8.8620350260744350e-09  -3.0142422391208759e-08  -3.3251366945577113e-08  1.3003405110889787e-06  -1.0349085754129467e-05  4.8136149495683385e-05  -8.1304634154214783e-05  -9.0699598589248230e-04  1.1289825247988999e-02  -7.7021291690099691e-02  3.7640714530060715e-01  -1.3170921667372868e+00  2.6833322859599402e+00  1.1088357701476605e+00  -2.1107618058323794e+01  -1.9723889566026003e+01  1.7220241300167549e+00  2.1601259220187266e+00  -1.1259516549165283e+00  3.2886765113442279e-01  -6.8292757164434448e-02  1.0172988727186602e-02  -8.5023783008439022e-04  -6.4426453922173283e-05  4.2009222505492544e-05  -9.2287712596834722e-06  1.1872103715898156e-06  -3.6922016039185501e-08  -2.5808868758282119e-08  7.8430462633155285e-09  -1.2670721073575864e-09  9.3029406304104713e-11  1.4169975023794721e-11  -6.5097829352735382e-12  1.2554955645164243e-12  -1.1215642985567350e-13  0.0000000000000000e+00  0.0000000000000000e+00  1.5489724690813648e-11  -1.1392869933412193e-10  4.1356268551699852e-10  2.6670771134190490e-10  -1.6067389905526805e-08  1.2914293550597832e-07  -5.7396580948224274e-07  6.1037877343073064e-07  1.4196597619056905e-05  -1.4552842222861082e-04  7.9835662076411119e-04  -2.0702411314252630e-03  -9.4273616880590338e-03  1.6244476460851975e-01  -1.2172315400532743e+00  6.1983431323763956e+00  -2.1107618058323798e+01  2.9985471559162690e+01  1.0945359216219066e+02  2.4986509169171182e+01  -1.9001316100038089e+01  5.6742888236232982e+00  -1.1259516549165240e+00  1.5208206724719694e-01  -9.2095120912895345e-03  -1.8393639878829028e-03  7.3308793844909827e-04  -1.3543742290657223e-04  1.3503948307701026e-05  4.9298423664742442e-07  -5.2353067993125561e-07  1.1969385087180318e-07  -1.5145012235739342e-08  3.1252782406458227e-10  3.7408283797839731e-10  -1.0560854670773546e-10  1.5871834676348682e-11  -8.7046388376061971e-13  -2.5725739763602057e-13  0.0000000000000000e+00  0.0000000000000000e+00  -6.0233499361584707e-12  5.2012956173279769e-12  1.6582185455788641e-10  -1.5769472519159829e-09  7.8867875674372029e-09  -1.4468996945992565e-08  -1.4159138652442071e-07  1.7045994124806721e-06  -9.8646597083731338e-06  2.6913065383335036e-05  1.0708099441949577e-04  -1.8794238761490976e-03  1.2818917294806456e-02  -4.6881356326414707e-02  -4.6921548329913867e-02  2.2261789233652531e+00  -1.9723889566026003e+01  1.0945359216219069e+02  -3.5601111147372541e+02  -3.3760823627220844e+02  1.0487737144833598e+02  -1.9001316100038174e+01  2.1601259220187341e+00  -4.9127747097269678e-02  -4.4605681555836878e-02  1.2319261045382630e-02  -1.8189022119273028e-03  1.0612582111569478e-04  2.5418359643750269e-05  -9.4611813713406009e-06  1.6464545022228223e-06  -1.3874686690230839e-07  -1.3469866303491198e-08  7.5481717449858017e-09  -1.520581679262028