<?xml version="1.0"?>
<VTKFile type="UnstructuredGrid"  version="0.1"  >
<UnstructuredGrid>
<Piece  NumberOfPoints="1681" NumberOfCells="3200">
<Points>
<DataArray  type="Float64"  NumberOfComponents="3"  format="ascii">-2 -2 0  -1.9 -2 0  -1.8 -2 0  -1.7 -2 0  -1.6 -2 0  -1.5 -2 0  -1.4 -2 0  -1.3 -2 0  -1.2 -2 0  -1.1 -2 0  -1 -2 0  -0.8999999999999999 -2 0  -0.8 -2 0  -0.7 -2 0  -0.6000000000000001 -2 0  -0.5 -2 0  -0.3999999999999999 -2 0  -0.3 -2 0  -0.2 -2 0  -0.1000000000000001 -2 0  0 -2 0  0.1000000000000001 -2 0  0.2000000000000002 -2 0  0.2999999999999998 -2 0  0.3999999999999999 -2 0  0.5 -2 0  0.6000000000000001 -2 0  0.7000000000000002 -2 0  0.7999999999999998 -2 0  0.8999999999999999 -2 0  1 -2 0  1.1 -2 0  1.2 -2 0  1.3 -2 0  1.4 -2 0  1.5 -2 0  1.6 -2 0  1.7 -2 0  1.8 -2 0  1.9 -2 0  2 -2 0  -2 -1.9 0  -1.9 -1.9 0  -1.8 -1.9 0  -1.7 -1.9 0  -1.6 -1.9 0  -1.5 -1.9 0  -1.4 -1.9 0  -1.3 -1.9 0  -1.2 -1.9 0  -1.1 -1.9 0  -1 -1.9 0  -0.8999999999999999 -1.9 0  -0.8 -1.9 0  -0.7 -1.9 0  -0.6000000000000001 -1.9 0  -0.5 -1.9 0  -0.3999999999999999 -1.9 0  -0.3 -1.9 0  -0.2 -1.9 0  -0.1000000000000001 -1.9 0  0 -1.9 0  0.1000000000000001 -1.9 0  0.2000000000000002 -1.9 0  0.2999999999999998 -1.9 0  0.3999999999999999 -1.9 0  0.5 -1.9 0  0.6000000000000001 -1.9 0  0.7000000000000002 -1.9 0  0.7999999999999998 -1.9 0  0.8999999999999999 -1.9 0  1 -1.9 0  1.1 -1.9 0  1.2 -1.9 0  1.3 -1.9 0  1.4 -1.9 0  1.5 -1.9 0  1.6 -1.9 0  1.7 -1.9 0  1.8 -1.9 0  1.9 -1.9 0  2 -1.9 0  -2 -1.8 0  -1.9 -1.8 0  -1.8 -1.8 0  -1.7 -1.8 0  -1.6 -1.8 0  -1.5 -1.8 0  -1.4 -1.8 0  -1.3 -1.8 0  -1.2 -1.8 0  -1.1 -1.8 0  -1 -1.8 0  -0.8999999999999999 -1.8 0  -0.8 -1.8 0  -0.7 -1.8 0  -0.6000000000000001 -1.8 0  -0.5 -1.8 0  -0.3999999999999999 -1.8 0  -0.3 -1.8 0  -0.2 -1.8 0  -0.1000000000000001 -1.8 0  0 -1.8 0  0.1000000000000001 -1.8 0  0.2000000000000002 -1.8 0  0.2999999999999998 -1.8 0  0.3999999999999999 -1.8 0  0.5 -1.8 0  0.6000000000000001 -1.8 0  0.7000000000000002 -1.8 0  0.7999999999999998 -1.8 0  0.8999999999999999 -1.8 0  1 -1.8 0  1.1 -1.8 0  1.2 -1.8 0  1.3 -1.8 0  1.4 -1.8 0  1.5 -1.8 0  1.6 -1.8 0  1.7 -1.8 0  1.8 -1.8 0  1.9 -1.8 0  2 -1.8 0  -2 -1.7 0  -1.9 -1.7 0  -1.8 -1.7 0  -1.7 -1.7 0  -1.6 -1.7 0  -1.5 -1.7 0  -1.4 -1.7 0  -1.3 -1.7 0  -1.2 -1.7 0  -1.1 -1.7 0  -1 -1.7 0  -0.8999999999999999 -1.7 0  -0.8 -1.7 0  -0.7 -1.7 0  -0.6000000000000001 -1.7 0  -0.5 -1.7 0  -0.3999999999999999 -1.7 0  -0.3 -1.7 0  -0.2 -1.7 0  -0.1000000000000001 -1.7 0  0 -1.7 0  0.1000000000000001 -1.7 0  0.2000000000000002 -1.7 0  0.2999999999999998 -1.7 0  0.3999999999999999 -1.7 0  0.5 -1.7 0  0.6000000000000001 -1.7 0  0.7000000000000002 -1.7 0  0.7999999999999998 -1.7 0  0.8999999999999999 -1.7 0  1 -1.7 0  1.1 -1.7 0  1.2 -1.7 0  1.3 -1.7 0  1.4 -1.7 0  1.5 -1.7 0  1.6 -1.7 0  1.7 -1.7 0  1.8 -1.7 0  1.9 -1.7 0  2 -1.7 0  -2 -1.6 0  -1.9 -1.6 0  -1.8 -1.6 0  -1.7 -1.6 0  -1.6 -1.6 0  -1.5 -1.6 0  -1.4 -1.6 0  -1.3 -1.6 0  -1.2 -1.6 0  -1.1 -1.6 0  -1 -1.6 0  -0.8999999999999999 -1.6 0  -0.8 -1.6 0  -0.7 -1.6 0  -0.6000000000000001 -1.6 0  -0.5 -1.6 0  -0.3999999999999999 -1.6 0  -0.3 -1.6 0  -0.2 -1.6 0  -0.1000000000000001 -1.6 0  0 -1.6 0  0.1000000000000001 -1.6 0  0.2000000000000002 -1.6 0  0.2999999999999998 -1.6 0  0.3999999999999999 -1.6 0  0.5 -1.6 0  0.6000000000000001 -1.6 0  0.7000000000000002 -1.6 0  0.7999999999999998 -1.6 0  0.8999999999999999 -1.6 0  1 -1.6 0  1.1 -1.6 0  1.2 -1.6 0  1.3 -1.6 0  1.4 -1.6 0  1.5 -1.6 0  1.6 -1.6 0  1.7 -1.6 0  1.8 -1.6 0  1.9 -1.6 0  2 -1.6 0  -2 -1.5 0  -1.9 -1.5 0  -1.8 -1.5 0  -1.7 -1.5 0  -1.6 -1.5 0  -1.5 -1.5 0  -1.4 -1.5 0  -1.3 -1.5 0  -1.2 -1.5 0  -1.1 -1.5 0  -1 -1.5 0  -0.8999999999999999 -1.5 0  -0.8 -1.5 0  -0.7 -1.5 0  -0.6000000000000001 -1.5 0  -0.5 -1.5 0  -0.3999999999999999 -1.5 0  -0.3 -1.5 0  -0.2 -1.5 0  -0.1000000000000001 -1.5 0  0 -1.5 0  0.1000000000000001 -1.5 0  0.2000000000000002 -1.5 0  0.2999999999999998 -1.5 0  0.3999999999999999 -1.5 0  0.5 -1.5 0  0.6000000000000001 -1.5 0  0.7000000000000002 -1.5 0  0.7999999999999998 -1.5 0  0.8999999999999999 -1.5 0  1 -1.5 0  1.1 -1.5 0  1.2 -1.5 0  1.3 -1.5 0  1.4 -1.5 0  1.5 -1.5 0  1.6 -1.5 0  1.7 -1.5 0  1.8 -1.5 0  1.9 -1.5 0  2 -1.5 0  -2 -1.4 0  -1.9 -1.4 0  -1.8 -1.4 0  -1.7 -1.4 0  -1.6 -1.4 0  -1.5 -1.4 0  -1.4 -1.4 0  -1.3 -1.4 0  -1.2 -1.4 0  -1.1 -1.4 0  -1 -1.4 0  -0.8999999999999999 -1.4 0  -0.8 -1.4 0  -0.7 -1.4 0  -0.6000000000000001 -1.4 0  -0.5 -1.4 0  -0.3999999999999999 -1.4 0  -0.3 -1.4 0  -0.2 -1.4 0  -0.1000000000000001 -1.4 0  0 -1.4 0  0.1000000000000001 -1.4 0  0.2000000000000002 -1.4 0  0.2999999999999998 -1.4 0  0.3999999999999999 -1.4 0  0.5 -1.4 0  0.6000000000000001 -1.4 0  0.7000000000000002 -1.4 0  0.7999999999999998 -1.4 0  0.8999999999999999 -1.4 0  1 -1.4 0  1.1 -1.4 0  1.2 -1.4 0  1.3 -1.4 0  1.4 -1.4 0  1.5 -1.4 0  1.6 -1.4 0  1.7 -1.4 0  1.8 -1.4 0  1.9 -1.4 0  2 -1.4 0  -2 -1.3 0  -1.9 -1.3 0  -1.8 -1.3 0  -1.7 -1.3 0  -1.6 -1.3 0  -1.5 -1.3 0  -1.4 -1.3 0  -1.3 -1.3 0  -1.2 -1.3 0  -1.1 -1.3 0  -1 -1.3 0  -0.8999999999999999 -1.3 0  -0.8 -1.3 0  -0.7 -1.3 0  -0.6000000000000001 -1.3 0  -0.5 -1.3 0  -0.3999999999999999 -1.3 0  -0.3 -1.3 0  -0.2 -1.3 0  -0.1000000000000001 -1.3 0  0 -1.3 0  0.1000000000000001 -1.3 0  0.2000000000000002 -1.3 0  0.2999999999999998 -1.3 0  0.3999999999999999 -1.3 0  0.5 -1.3 0  0.6000000000000001 -1.3 0  0.7000000000000002 -1.3 0  0.7999999999999998 -1.3 0  0.8999999999999999 -1.3 0  1 -1.3 0  1.1 -1.3 0  1.2 -1.3 0  1.3 -1.3 0  1.4 -1.3 0  1.5 -1.3 0  1.6 -1.3 0  1.7 -1.3 0  1.8 -1.3 0  1.9 -1.3 0  2 -1.3 0  -2 -1.2 0  -1.9 -1.2 0  -1.8 -1.2 0  -1.7 -1.2 0  -1.6 -1.2 0  -1.5 -1.2 0  -1.4 -1.2 0  -1.3 -1.2 0  -1.2 -1.2 0  -1.1 -1.2 0  -1 -1.2 0  -0.8999999999999999 -1.2 0  -0.8 -1.2 0  -0.7 -1.2 0  -0.6000000000000001 -1.2 0  -0.5 -1.2 0  -0.3999999999999999 -1.2 0  -0.3 -1.2 0  -0.2 -1.2 0  -0.1000000000000001 -1.2 0  0 -1.2 0  0.1000000000000001 -1.2 0  0.2000000000000002 -1.2 0  0.2999999999999998 -1.2 0  0.3999999999999999 -1.2 0  0.5 -1.2 0  0.6000000000000001 -1.2 0  0.7000000000000002 -1.2 0  0.7999999999999998 -1.2 0  0.8999999999999999 -1.2 0  1 -1.2 0  1.1 -1.2 0  1.2 -1.2 0  1.3 -1.2 0  1.4 -1.2 0  1.5 -1.2 0  1.6 -1.2 0  1.7 -1.2 0  1.8 -1.2 0  1.9 -1.2 0  2 -1.2 0  -2 -1.1 0  -1.9 -1.1 0  -1.8 -1.1 0  -1.7 -1.1 0  -1.6 -1.1 0  -1.5 -1.1 0  -1.4 -1.1 0  -1.3 -1.1 0  -1.2 -1.1 0  -1.1 -1.1 0  -1 -1.1 0  -0.8999999999999999 -1.1 0  -0.8 -1.1 0  -0.7 -1.1 0  -0.6000000000000001 -1.1 0  -0.5 -1.1 0  -0.3999999999999999 -1.1 0  -0.3 -1.1 0  -0.2 -1.1 0  -0.1000000000000001 -1.1 0  0 -1.1 0  0.1000000000000001 -1.1 0  0.2000000000000002 -1.1 0  0.2999999999999998 -1.1 0  0.3999999999999999 -1.1 0  0.5 -1.1 0  0.6000000000000001 -1.1 0  0.7000000000000002 -1.1 0  0.7999999999999998 -1.1 0  0.8999999999999999 -1.1 0  1 -1.1 0  1.1 -1.1 0  1.2 -1.1 0  1.3 -1.1 0  1.4 -1.1 0  1.5 -1.1 0  1.6 -1.1 0  1.7 -1.1 0  1.8 -1.1 0  1.9 -1.1 0  2 -1.1 0  -2 -1 0  -1.9 -1 0  -1.8 -1 0  -1.7 -1 0  -1.6 -1 0  -1.5 -1 0  -1.4 -1 0  -1.3 -1 0  -1.2 -1 0  -1.1 -1 0  -1 -1 0  -0.8999999999999999 -1 0  -0.8 -1 0  -0.7 -1 0  -0.6000000000000001 -1 0  -0.5 -1 0  -0.3999999999999999 -1 0  -0.3 -1 0  -0.2 -1 0  -0.1000000000000001 -1 0  0 -1 0  0.1000000000000001 -1 0  0.2000000000000002 -1 0  0.2999999999999998 -1 0  0.3999999999999999 -1 0  0.5 -1 0  0.6000000000000001 -1 0  0.7000000000000002 -1 0  0.7999999999999998 -1 0  0.8999999999999999 -1 0  1 -1 0  1.1 -1 0  1.2 -1 0  1.3 -1 0  1.4 -1 0  1.5 -1 0  1.6 -1 0  1.7 -1 0  1.8 -1 0  1.9 -1 0  2 -1 0  -2 -0.8999999999999999 0  -1.9 -0.8999999999999999 0  -1.8 -0.8999999999999999 0  -1.7 -0.8999999999999999 0  -1.6 -0.8999999999999999 0  -1.5 -0.8999999999999999 0  -1.4 -0.8999999999999999 0  -1.3 -0.8999999999999999 0  -1.2 -0.8999999999999999 0  -1.1 -0.8999999999999999 0  -1 -0.8999999999999999 0  -0.8999999999999999 -0.8999999999999999 0  -0.8 -0.8999999999999999 0  -0.7 -0.8999999999999999 0  -0.6000000000000001 -0.8999999999999999 0  -0.5 -0.8999999999999999 0  -0.3999999999999999 -0.8999999999999999 0  -0.3 -0.8999999999999999 0  -0.2 -0.8999999999999999 0  -0.1000000000000001 -0.8999999999999999 0  0 -0.8999999999999999 0  0.1000000000000001 -0.8999999999999999 0  0.2000000000000002 -0.8999999999999999 0  0.2999999999999998 -0.8999999999999999 0  0.3999999999999999 -0.8999999999999999 0  0.5 -0.8999999999999999 0  0.6000000000000001 -0.8999999999999999 0  0.7000000000000002 -0.8999999999999999 0  0.7999999999999998 -0.8999999999999999 0  0.8999999999999999 -0.8999999999999999 0  1 -0.8999999999999999 0  1.1 -0.8999999999999999 0  1.2 -0.8999999999999999 0  1.3 -0.8999999999999999 0  1.4 -0.8999999999999999 0  1.5 -0.8999999999999999 0  1.6 -0.8999999999999999 0  1.7 -0.8999999999999999 0  1.8 -0.8999999999999999 0  1.9 -0.8999999999999999 0  2 -0.8999999999999999 0  -2 -0.8 0  -1.9 -0.8 0  -1.8 -0.8 0  -1.7 -0.8 0  -1.6 -0.8 0  -1.5 -0.8 0  -1.4 -0.8 0  -1.3 -0.8 0  -1.2 -0.8 0  -1.1 -0.8 0  -1 -0.8 0  -0.8999999999999999 -0.8 0  -0.8 -0.8 0  -0.7 -0.8 0  -0.6000000000000001 -0.8 0  -0.5 -0.8 0  -0.3999999999999999 -0.8 0  -0.3 -0.8 0  -0.2 -0.8 0  -0.1000000000000001 -0.8 0  0 -0.8 0  0.1000000000000001 -0.8 0  0.2000000000000002 -0.8 0  0.2999999999999998 -0.8 0  0.3999999999999999 -0.8 0  0.5 -0.8 0  0.6000000000000001 -0.8 0  0.7000000000000002 -0.8 0  0.7999999999999998 -0.8 0  0.8999999999999999 -0.8 0  1 -0.8 0  1.1 -0.8 0  1.2 -0.8 0  1.3 -0.8 0  1.4 -0.8 0  1.5 -0.8 0  1.6 -0.8 0  1.7 -0.8 0  1.8 -0.8 0  1.9 -0.8 0  2 -0.8 0  -2 -0.7 0  -1.9 -0.7 0  -1.8 -0.7 0  -1.7 -0.7 0  -1.6 -0.7 0  -1.5 -0.7 0  -1.4 -0.7 0  -1.3 -0.7 0  -1.2 -0.7 0  -1.1 -0.7 0  -1 -0.7 0  -0.8999999999999999 -0.7 0  -0.8 -0.7 0  -0.7 -0.7 0  -0.6000000000000001 -0.7 0  -0.5 -0.7 0  -0.3999999999999999 -0.7 0  -0.3 -0.7 0  -0.2 -0.7 0  -0.1000000000000001 -0.7 0  0 -0.7 0  0.1000000000000001 -0.7 0  0.2000000000000002 -0.7 0  0.2999999999999998 -0.7 0  0.3999999999999999 -0.7 0  0.5 -0.7 0  0.600000000000000
[...]
<PointData  Scalars="f_1726"> 
<DataArray  type="Float64"  Name="f_1726"  format="ascii">0.0000000000000000e+00  0.0000000000000000e+00  0.0000000000000000e+00  0.0000000000000000e+00  0.0000000000000000e+00  0.0000000000000000e+00  0.0000000000000000e+00  0.0000000000000000e+00  0.0000000000000000e+00  0.0000000000000000e+00  0.0000000000000000e+00  0.0000000000000000e+00  0.0000000000000000e+00  0.0000000000000000e+00  0.0000000000000000e+00  0.0000000000000000e+00  0.0000000000000000e+00  0.0000000000000000e+00  0.0000000000000000e+00  0.0000000000000000e+00  0.0000000000000000e+00  0.0000000000000000e+00  0.0000000000000000e+00  0.0000000000000000e+00  0.0000000000000000e+00  0.0000000000000000e+00  0.0000000000000000e+00  0.0000000000000000e+00  0.0000000000000000e+00  0.0000000000000000e+00  0.0000000000000000e+00  0.0000000000000000e+00  0.0000000000000000e+00  0.0000000000000000e+00  0.0000000000000000e+00  0.0000000000000000e+00  0.0000000000000000e+00  0.0000000000000000e+00  0.0000000000000000e+00  0.0000000000000000e+00  0.0000000000000000e+00  0.0000000000000000e+00  -1.1116634716205464e-11  -1.2954872794129232e-11  8.5130154060205558e-11  -2.0513953414579733e-11  -4.3115449556361344e-10  2.3229344889087355e-10  2.1214032531312293e-09  2.9186824645293477e-10  -8.8055597075913870e-09  -1.7570318973303835e-08  -1.5487425005253283e-08  -5.3380729851794402e-09  1.4446754916240744e-09  1.4636072515905499e-09  -1.3892325432536012e-10  -2.8052848697675377e-10  4.6999302349046479e-11  4.3177177553488926e-11  -1.6789920728194002e-11  -3.0674657859530188e-12  3.6555009017388654e-12  -7.1709785399003656e-13  -3.1263293456182602e-13  2.3353233768700643e-13  -5.1268812476231420e-14  -1.1647839005061485e-14  1.2865865848049825e-14  -4.6151620883899990e-15  5.4168000809014434e-16  3.4677287880684304e-16  -2.5845713921364884e-16  9.6857737662304395e-17  -2.1419707862514261e-17  1.7734411133553917e-19  2.5114413891004781e-18  -1.5107278958583689e-18  6.1466879767822159e-19  -2.0375677011611804e-19  6.4589564383213847e-20  0.0000000000000000e+00  0.0000000000000000e+00  -1.2954872794129240e-11  9.3166257683788315e-11  -8.2880562216883775e-11  -4.0813763607563425e-10  8.5708251314889876e-10  1.6018693644828805e-09  -4.6149904856011312e-09  -9.0148839826135232e-09  1.3441835555669506e-08  5.7611542126505250e-08  7.5211351425368882e-08  4.4049170349271284e-08  3.5627784587253951e-09  -8.5390773521217582e-09  -1.9409510183558214e-09  1.5853464026009671e-09  2.6821456319182259e-10  -3.1757308653166554e-10  1.4498467136135872e-11  4.9784381319985731e-11  -1.6777572038692145e-11  -2.4263939103657468e-12  3.4996590313120697e-12  -1.0122971500403897e-12  -9.4304976478387682e-14  1.9001299581708596e-13  -7.5776973002260701e-14  1.0539675882775822e-14  5.0159868941985136e-15  -4.0402514035885794e-15  1.5220676603728375e-15  -3.2496963654919246e-16  -6.0682653767081890e-18  4.2850800213563641e-17  -2.4309603689318833e-17  9.5036765483314581e-18  -3.0052384104036248e-18  8.1635834229605242e-19  -2.0375677011611821e-19  0.0000000000000000e+00  0.0000000000000000e+00  8.5130154060205610e-11  -8.2880562216883775e-11  -3.7314011838721280e-10  1.1050758159987448e-09  6.0967127961197902e-10  -6.5559120841386143e-09  4.0679479439735917e-10  3.2749720396471984e-08  1.2437306018860018e-08  -1.3321745416865564e-07  -2.8350652953052689e-07  -2.5130990695174980e-07  -8.1555862981036691e-08  2.6796930475275232e-08  2.1828583691142743e-08  -3.8788386219306295e-09  -3.9062562724433102e-09  1.1527945046470152e-09  4.6222381607213626e-10  -3.0422363085493516e-10  1.2392602547022690e-11  4.4242298530118860e-11  -1.8145839208986799e-11  5.3943289019629306e-13  2.4549217885735359e-12  -1.1903136388570551e-12  2.1927140259814821e-13  5.5693671837218485e-14  -5.8276680182181175e-14  2.3615830719951786e-14  -5.4009798268581324e-15  6.2091305734661219e-17  6.2257132965340226e-16  -3.6918175544845159e-16  1.4657362254655371e-16  -4.6798924009327127e-17  1.2681817319871723e-17  -3.0052384104036109e-18  6.1466879767821957e-19  0.0000000000000000e+00  0.0000000000000000e+00  -2.0513953414579672e-11  -4.0813763607563450e-10  1.1050758159987455e-09  2.0739247450914723e-10  -6.7148958513639654e-09  7.6463395230146050e-09  2.9308364729117872e-08  -5.3452020585369317e-08  -1.4767917869872409e-07  1.6056249575497121e-07  8.5315731401778864e-07  1.1499223534072535e-06  6.5876342181172822e-07  3.0393884014514912e-08  -1.3082369451873402e-07  -1.8500697764439152e-08  2.4702676609415865e-08  7.4344034108776984e-10  -4.3956966858709406e-09  9.1541185676463002e-10  4.5073187669340806e-10  -2.9438089206776692e-10  3.9498411995258595e-11  2.8332521495885842e-11  -1.8081416036982593e-11  4.2499795132284187e-12  4.7826431707289807e-13  -8.2178533545702980e-13  3.6567511040202073e-13  -9.0386975025614328e-14  3.8168689447913867e-15  8.9478950720352322e-15  -5.6312478816018339e-15  2.2809074978619233e-15  -7.3465554404594492e-16  1.9981608217877774e-16  -4.6798924009327349e-17  9.5036765483314720e-18  -1.5107278958583749e-18  0.0000000000000000e+00  0.0000000000000000e+00  -4.3115449556361416e-10  8.5708251314889928e-10  6.0967127961197954e-10  -6.7148958513639687e-09  9.9869490429997490e-09  2.2093245043817279e-08  -8.4392146942770917e-08  -4.6913977843656107e-08  4.5527859046234918e-07  3.1346527273843159e-07  -1.8542339553114574e-06  -4.2856673410108407e-06  -3.8197134565527734e-06  -1.1409977448873426e-06  4.6421854731770700e-07  2.9084197223821842e-07  -8.4021165608535797e-08  -4.4787403302493785e-08  2.1984201393058964e-08  2.3667501281091303e-09  -4.2385792169060321e-09  1.0427455256635618e-09  2.5931688741183276e-10  -2.6184157724313715e-10  7.7439401596990494e-11  1.0163135932992019e-12  -1.1220959197027925e-11  5.6096248265295600e-12  -1.5039253376675715e-12  1.0651775098484029e-13  1.2680817311888468e-13  -8.5744138600369063e-14  3.5511395430504115e-14  -1.1540740520484446e-14  3.1458257139648860e-15  -7.3465554404594383e-16  1.4657362254655398e-16  -2.4309603689318784e-17  2.5114413891004758e-18  0.0000000000000000e+00  0.0000000000000000e+00  2.3229344889087451e-10  1.6018693644828826e-09  -6.5559120841386209e-09  7.6463395230146132e-09  2.2093245043817282e-08  -9.1161518051027016e-08  2.4687001318152191e-08  4.8053420551673455e-07  -5.1622438992335727e-07  -2.3474212475287182e-06  1.7075114026636914e-06  1.2556536661794351e-05  1.7583590557731275e-05  9.7955057738602612e-06  4.7850170718287138e-08  -1.9662759760427978e-06  -9.2687262244039032e-08  3.5998234748660959e-07  -4.0331927302007718e-08  -5.0752924019213189e-08  2.1040319188549816e-08  8.7116263325485009e-10  -3.5319283230965033e-09  1.3375417249077450e-09  -8.8579578617339814e-11  -1.4579998871443214e-10  8.4933196643195438e-11  -2.4853986626111711e-11  2.4394685459424645e-12  1.7601607551394477e-12  -1.3014406635274358e-12  5.5286563227026806e-13  -1.8147184372547447e-13  4.9578696499371227e-14  -1.1540740520484442e-14  2.2809074978619202e-15  -3.6918175544845248e-16  4.2850800213563660e-17  1.7734411133551209e-19  0.0000000000000000e+00  0.0000000000000000e+00  2.1214032531312309e-09  -4.6149904856011394e-09  4.0679479439736238e-10  2.9308364729117895e-08  -8.4392146942770983e-08  2.4687001318152174e-08  4.5716786348706585e-07  -9.1246164500061075e-07  -1.4490915697136619e-06  5.9810862647999993e-06  6.6496760506430210e-06  -2.5317855841349526e-05  -6.4988721829563564e-05  -5.8263205807356869e-05  -1.5609201940391247e-05  7.9444356874898079e-06  3.6246630749080298e-06  -1.5999137596257047e-06  -3.9468205910950007e-07  3.5318317961235424e-07  -3.7546878373669008e-08  -4.2216301154796746e-08  2.1862273722155798e-08  -3.0277303070112482e-09  -1.7422948514580602e-09  1.2628689006389803e-09  -4.0757513795505522e-10  5.0959093268192806e-11  2.3704215563487375e-11  -1.9672442751899563e-11  8.6068017211588360e-12  -2.8569380834337318e-12  7.8248104479547532e-13  -1.8147184372547479e-13  3.5511395430504184e-14  -5.6312478816018449e-15  6.2257132965340650e-16  -6.0682653767087606e-18  -2.1419707862514162e-17  0.0000000000000000e+00  0.0000000000000000e+00  2.9186824645293291e-10  -9.0148839826135232e-09  3.2749720396472011e-08  -5.3452020585369370e-08  -4.6913977843656173e-08  4.8053420551673497e-07  -9.1246164500061118e-07  -9.8442299774584273e-07  7.0105163895876165e-06  -2.8281229197488630e-06  -3.6112312654894815e-05  1.3780727521510665e-05  1.8427949449414211e-04  2.7044087823406240e-04  1.4533792255246337e-04  -6.4821824238811504e-06  -2.8847789230710936e-05  1.7014138857438230e-06  4.7515235395952534e-06  -1.3050553470479708e-06  -3.8675303963175672e-07  3.3364328639214748e-07  -7.1941505163866399e-08  -1.7572336812540606e-08  1.8293009532432410e-08  -6.6210787250039441e-09  1.0090681487443300e-09  3.0456537388350970e-10  -2.9576809836439082e-10  1.3396490730065957e-10  -4.5039121684549068e-11  1.2370057599276005e-11  -2.8569380834337193e-12  5.5286563227026645e-13  -8.5744138600368785e-14  8.9478950720351880e-15  6.2091305734665718e-17  -3.2496963654919162e-16  9.6857737662304124e-17  0.0000000000000000e+00  0.0000000000000000e+00  -8.8055597075913854e-09  1.3441835555669514e-08  1.2437306018860013e-08  -1.4767917869872417e-07  4.5527859046234971e-07  -5.1622438992335780e-07  -1.4490915697136641e-06  7.0105163895876224e-06  -6.2627253217812880e-06  -3.0813266734555631e-05  7.1073161271587653e-05  1.2901108851688398e-04  -3.3529233056162658e-04  -9.8989498722625371e-04  -8.9312490025550406e-04  -2.0577273601957754e-04  1.3417818037456900e-04  3.9572621740461727e-05  -2.7497465076688933e-05  -8.0849536350777135e-07  4.5894462164570492e-06  -1.4593272361707289e-06  -1.0291909468876063e-07  2.5453460800304750e-07  -1.0624220303207125e-07  1.9287087986966381e-08  3.6068231167635992e-09  -4.4146185598117469e-09  2.0844836834666764e-09  -7.1117496608602107e-10  1.9593554177672976e-10  -4.5039121684549275e-11  8.6068017211588505e-12  -1.3014406635274431e-12  1.2680817311888607e-13  3.8168689447911083e-15  -5.4009798268581032e-15  1.5220676603728288e-15  -2.5845713921364795e-16  0.0000000000000000e+00  0.0000000000000000e+00  -1.7570318973303825e-08  5.7611542126505211e-08  -1.3321745416865562e-07  1.6056249575497135e-07  3.1346527273843143e-07  -2.3474212475287204e-06  5.9810862648000060e-06  -2.8281229197488638e-06  -3.0813266734555651e-05  8.5489637636285156e-05  3.8518883879540339e-05  -5.2972588527913189e-04  3.3238481677960481e-06  2.6912904748816503e-03  4.1925631287008935e-03  2.1475171831623176e-03  -2.2663441054442598e-04  -4.0565643683585553e-04  7.5019422601750138e-05  5.1604052040842016e-05  -2.6372780413482997e-05  1.3741798735403135e-06  3.3093159517468838e-06  -1.6753827907598071e-06  3.5924263671960114e-07  3.5957997394030396e-08  -6.5230480603773863e-08  3.2415795987449412e-08  -1.1250920679412721e-08  3.1107023178650663e-09  -7.1117496608602024e-10  1.3396490730065990e-10  -1.9672442751899554e-11  1.7601607551394497e-12  1.0651775098484045e-13  -9.0386975025614291e-14  2.3615830719951846e-14  -4.0402514035885763e-15  3.4677287880684343e-16  0.0000000000000000e+00  0.0000000000000000e+00  -1.5487425005253260e-08  7.5211351425368789e-08  -2.8350652953052674e-07  8.5315731401778811e-07  -1.8542339553114572e-06  1.7075114026636935e-06  6.6496760506430219e-06  -3.6112312654894863e-05  7.1073161271587707e-05  3.8518883879540373e-05  -5.3188275427355422e-04  6.7297216281723754e-04  2.3523380527566834e-03  -4.2026050417474422e-03  -1.5168690715172203e-02  -1.3782273641760970e-02  -2.5282261308625245e-03  2.2253969165881133e-03  2.9848529918654530e-04  -4.1811887389857014e-04  7.0852971848332162e-05  3.7641881014227346e-05  -2.5724943679354646e-05  6.5515073320047906e-06  1.9589926151868761e-07  -9.4982484189422168e-07  5.0360908883829037e-07  -1.7839856086830819e-07  4.9524248730013023e-08  -1.1250920679412724e-08  2.0844836834666764e-09  -2.9576809836439211e-10  2.3704215563487482e-11  2.4394685459424382e-12  -1.5039253376675652e-12  3.6567511040201906e-13  -5.8276680182181062e-14  5.0159868941984726e-15  5.4168000809014996e-16  0.0000000000000000e+00  0.0000000000000000e+00  -5.3380729851794311e-09  4.4049170349271218e-08  -2.5130990695174948e-07  1.1499223534072525e-06  -4.2856673410108364e-06  1.2556536661794347e-05  -2.5317855841349526e-05  1.3780727521510710e-05  1.2901108851688409e-04  -5.2972588527913232e-04  6.7297216281723732e-04  1.7893401879261234e-03  -7.1447760334172501e-03  -3.5156304853375259e-03  3.8948090900011799e-02  6.5739994617124237e-02  3.1470074453252152e-02  -5.7707396802924703e-03  -5.2388418786346678e-03  1.8347744867572681e-03  2.9582278011950464e-04  -3.7752805636966330e-04  1.1709954148374255e-04  -3.6017029641595259e-06  -1.3522594556043613e-05  7.8112986566024669e-06  -2.8366766585498261e-06  7.9118100457427898e-07  -1.7839856086830851e-07  3.2415795987449491e-08  -4.4146185598117593e-09  3.0456537388351285e-10  5.0959093268192425e-11  -2.4853986626111673e-11  5.6096248265295543e-12  -8.2178533545702879e-13  5.5693671837218598e-14  1.0539675882775798e-14  -4.6151620883899975e-15  0.0000000000000000e+00  0.0000000000000000e+00  1.4446754916240763e-09  3.5627784587253719e-09  -8.1555862981036493e-08  6.5876342181172705e-07  -3.8197134565527692e-06  1.7583590557731251e-05  -6.4988721829563510e-05  1.8427949449414206e-04  -3.3529233056162685e-04  3.3238481677954823e-06  2.3523380527566860e-03  -7.1447760334172501e-03  2.1364203131297066e-03  4.0373463135275574e-02  -4.6771627253809976e-02  -2.3443523604424485e-01  -2.1469471233886814e-01  -2.6278508985229987e-02  3.5732376083456079e-02  -1.2957339227781658e-03  -5.0701394198048770e-03  2.0434622766090749e-03  -1.7958695171574796e-04  -1.8544266980767394e-04  1.2082215490154209e-04  -4.5264049008856529e-05  1.2694903673458108e-05  -2.8366766585498164e-06  5.0360908883828899e-07  -6.5230480603773651e-08  3.6068231167635727e-09  1.0090681487443342e-09  -4.0757513795505419e-10  8.4933196643195153e-11  -1.1220959197027863e-11  4.7826431707288817e-13  2.1927140259815008e-13  -7.5776973002260726e-14  1.2865865848049826e-14  0.0000000000000000e+00  0.0000000000000000e+00  1.4636072515905476e-09  -8.5390773521217483e-09  2.6796930475275218e-08  3.0393884014514608e-08  -1.1409977448873401e-06  9.7955057738602477e-06  -5.8263205807356808e-05  2.7044087823406218e-04  -9.8989498722625306e-04  2.6912904748816525e-03  -4.2026050417474431e-03  -3.5156304853375406e-03  4.0373463135275608e-02  -7.9327885481885158e-02  -1.1628645713380346e-01  5.5301612424713309e-01  1.0492244677973377e+00  4.5281027159226783e-01  -1.3068047925051027e-01  -5.4322644834420439e-02  3.4339598159528598e-02  -5.1271760522260037e-03  -2.3700143472542476e-03  1.8596485438700718e-03  -7.2555398502973116e-04  2.0485991441695676e-04  -4.5264049008856752e-05  7.8112986566024838e-06  -9.4982484189422761e-07  3.5957997394031527e-08  1.9287087986966146e-08  -6.6210787250039267e-09  1.2628689006389745e-09  -1.4579998871443157e-10  1.0163135932991369e-12  4.2499795132284163e-12  -1.1903136388570571e-12  1.9001299581708543e-13  -1.1647839005061430e-14  0.0000000000000000e+00  0.0000000000000000e+00  -1.3892325432536090e-10  -1.9409510183558147e-09  2.1828583691142703e-08  -1.3082369451873387e-07  4.6421854731770732e-07  4.7850170718282281e-08  -1.5609201940391207e-05  1.4533792255246318e-04  -8.9312490025550298e-04  4.1925631287008892e-03  -1.5168690715172210e-02  3.8948090900011820e-02  -4.6771627253809955e-02  -1.1628645713380363e-01  6.3062144719315072e-01  -3.5451226241984934e-01  -3.6713578499720976e+00  -3.3929991253980347e+00  -1.3079251334446423e-01  5.3171837718641846e-01  -1.2433709900428221e-01  -2.5671259282125256e-02  2.8356923656872573e-02  -1.1701489392309939e-02  3.3315632458004586e-03  -7.2555398502973040e-04  1.2082215490154242e-04  -1.3522594556043603e-05  1.9589926151868745e-07  3.5924263671960130e-07  -1.0624220303207120e-07  1.8293009532432463e-08  -1.7422948514580606e-09  -8.8579578617339685e-11  7.7439401596990507e-11  -1.8081416036982580e-11  2.4549217885735415e-12  -9.4304976478387366e-14  -5.1268812476231408e-14  0.0000000000000000e+00  0.0000000000000000e+00  -2.8052848697675372e-10  1.5853464026009681e-09  -3.8788386219306427e-09  -1.8500697764439033e-08  2.9084197223821773e-07  -1.9662759760427961e-06  7.9444356874898062e-06  -6.4821824238811945e-06  -2.0577273601957716e-04  2.1475171831623150e-03  -1.3782273641760963e-02  6.5739994617124195e-02  -2.3443523604424485e-01  5.5301612424713287e-01  -3.5451226241984823e-01  -2.8667258554061110e+00  7.4797142530630678e+00  1.7277709404530839e+01  6.2054119462162900e+00  -2.7694072871156870e+00  -1.3694223116048257e-01  4.2392454038438865e-01  -1.9036416466813258e-01  5.4786523131293015e-02  -1.1701489392309937e-02  1.8596485438700711e-03  -1.8544266980767481e-04  -3.6017029641594081e-06  6.5515073320047669e-06  -1.6753827907598014e-06  2.5453460800304617e-07  -1.7572336812540460e-08  -3.0277303070112771e-09  1.3375417249077506e-09  -2.6184157724313782e-10  2.8332521495885887e-11  5.3943289019629124e-13  -1.0122971500403889e-12  2.3353233768700648e-13  0.0000000000000000e+00  0.0000000000000000e+00  4.6999302349046537e-11  2.6821456319182218e-10  -3.9062562724433102e-09  2.4702676609415872e-08  -8.4021165608535917e-08  -9.2687262244037616e-08  3.6246630749080226e-06  -2.8847789230710912e-05  1.3417818037456903e-04  -2.2663441054442633e-04  -2.5282261308625215e-03  3.1470074453252145e-02  -2.1469471233886808e-01  1.0492244677973379e+00  -3.6713578499720985e+00  7.4797142530630643e+00  3.0908489260444245e+00  -5.8836899352767347e+01  -5.4979794595237593e+01  4.8000944559861152e+00  6.0212910387109950e+00  -3.1385589796704130e+00  9.1670944758954076e-01  -1.9036416466813291e-01  2.8356923656872663e-02  -2.3700143472542637e-03  -1.7958695171574584e-04  1.1709954148374212e-04  -2.5724943679354609e-05  3.3093159517468812e-06  -1.0291909468876076e-07  -7.1941505163866532e-08  2.1862273722155782e-08  -3.5319283230965028e-09  2.5931688741183188e-10  3.9498411995258750e-11  -1.8145839208986877e-11  3.4996590313120718e-12  -3.1263293456182648e-13  0.0000000000000000e+00  0.0000000000000000e+00  4.3177177553488880e-11  -3.1757308653166533e-10  1.1527945046470152e-09  7.4344034108776581e-10  -4.4787403302493785e-08  3.5998234748660964e-07  -1.5999137596257068e-06  1.7014138857438387e-06  3.9572621740461632e-05  -4.0565643683585526e-04  2.2253969165881137e-03  -5.7707396802924799e-03  -2.6278508985229918e-02  4.5281027159226728e-01  -3.3929991253980329e+00  1.7277709404530846e+01  -5.8836899352767311e+01  8.3583669521440413e+01  3.0509884952679812e+02  6.9649200639376673e+01  -5.2965641118713684e+01  1.5816922567556107e+01  -3.1385589796704028e+00  4.2392454038438770e-01  -2.5671259282125113e-02  -5.1271760522260054e-03  2.0434622766090796e-03  -3.7752805636966249e-04  3.7641881014227190e-05  1.3741798735403446e-06  -1.4593272361707325e-06  3.3364328639214886e-07  -4.2216301154796805e-08  8.7116263325486074e-10  1.0427455256635603e-09  -2.9438089206776635e-10  4.4242298530118835e-11  -2.4263939103657221e-12  -7.1709785399003939e-13  0.0000000000000000e+00  0.0000000000000000e+00  -1.6789920728193999e-11  1.4498467136135891e-11  4.6222381607213616e-10  -4.3956966858709389e-09  2.1984201393058964e-08  -4.0331927302007784e-08  -3.9468205910949991e-07  4.7515235395952567e-06  -2.7497465076688957e-05  7.5019422601750328e-05  2.9848529918654454e-04  -5.2388418786346669e-03  3.5732376083456086e-02  -1.3068047925051038e-01  -1.3079251334446310e-01  6.2054119462162864e+00  -5.4979794595237529e+01  3.0509884952679789e+02  -9.9237108973488012e+02  -9.4107358600701616e+02  2.9234276133090873e+02  -5.2965641118713890e+01  6.0212910387110172e+00  -1.3694223116048787e-01  -1.2433709900428128e-01  3.4339598159528403e-02  -5.0701394198048640e-03  2.9582278011950030e-04  7.0852971848332826e-05  -2.6372780413483078e-05  4.5894462164570543e-06  -3.8675303963175794e-07  -3.7546878373669061e-08  2.1040319188549849e-08  -4.238579216906039