<?xml version="1.0"?>
<VTKFile type="UnstructuredGrid"  version="0.1"  >
<UnstructuredGrid>
<Piece  NumberOfPoints="1681" NumberOfCells="3200">
<Points>
<DataArray  type="Float64"  NumberOfComponents="3"  format="ascii">-2 -2 0  -1.9 -2 0  -1.8 -2 0  -1.7 -2 0  -1.6 -2 0  -1.5 -2 0  -1.4 -2 0  -1.3 -2 0  -1.2 -2 0  -1.1 -2 0  -1 -2 0  -0.8999999999999999 -2 0  -0.8 -2 0  -0.7 -2 0  -0.6000000000000001 -2 0  -0.5 -2 0  -0.3999999999999999 -2 0  -0.3 -2 0  -0.2 -2 0  -0.1000000000000001 -2 0  0 -2 0  0.1000000000000001 -2 0  0.2000000000000002 -2 0  0.2999999999999998 -2 0  0.3999999999999999 -2 0  0.5 -2 0  0.6000000000000001 -2 0  0.7000000000000002 -2 0  0.7999999999999998 -2 0  0.8999999999999999 -2 0  1 -2 0  1.1 -2 0  1.2 -2 0  1.3 -2 0  1.4 -2 0  1.5 -2 0  1.6 -2 0  1.7 -2 0  1.8 -2 0  1.9 -2 0  2 -2 0  -2 -1.9 0  -1.9 -1.9 0  -1.8 -1.9 0  -1.7 -1.9 0  -1.6 -1.9 0  -1.5 -1.9 0  -1.4 -1.9 0  -1.3 -1.9 0  -1.2 -1.9 0  -1.1 -1.9 0  -1 -1.9 0  -0.8999999999999999 -1.9 0  -0.8 -1.9 0  -0.7 -1.9 0  -0.6000000000000001 -1.9 0  -0.5 -1.9 0  -0.3999999999999999 -1.9 0  -0.3 -1.9 0  -0.2 -1.9 0  -0.1000000000000001 -1.9 0  0 -1.9 0  0.1000000000000001 -1.9 0  0.2000000000000002 -1.9 0  0.2999999999999998 -1.9 0  0.3999999999999999 -1.9 0  0.5 -1.9 0  0.6000000000000001 -1.9 0  0.7000000000000002 -1.9 0  0.7999999999999998 -1.9 0  0.8999999999999999 -1.9 0  1 -1.9 0  1.1 -1.9 0  1.2 -1.9 0  1.3 -1.9 0  1.4 -1.9 0  1.5 -1.9 0  1.6 -1.9 0  1.7 -1.9 0  1.8 -1.9 0  1.9 -1.9 0  2 -1.9 0  -2 -1.8 0  -1.9 -1.8 0  -1.8 -1.8 0  -1.7 -1.8 0  -1.6 -1.8 0  -1.5 -1.8 0  -1.4 -1.8 0  -1.3 -1.8 0  -1.2 -1.8 0  -1.1 -1.8 0  -1 -1.8 0  -0.8999999999999999 -1.8 0  -0.8 -1.8 0  -0.7 -1.8 0  -0.6000000000000001 -1.8 0  -0.5 -1.8 0  -0.3999999999999999 -1.8 0  -0.3 -1.8 0  -0.2 -1.8 0  -0.1000000000000001 -1.8 0  0 -1.8 0  0.1000000000000001 -1.8 0  0.2000000000000002 -1.8 0  0.2999999999999998 -1.8 0  0.3999999999999999 -1.8 0  0.5 -1.8 0  0.6000000000000001 -1.8 0  0.7000000000000002 -1.8 0  0.7999999999999998 -1.8 0  0.8999999999999999 -1.8 0  1 -1.8 0  1.1 -1.8 0  1.2 -1.8 0  1.3 -1.8 0  1.4 -1.8 0  1.5 -1.8 0  1.6 -1.8 0  1.7 -1.8 0  1.8 -1.8 0  1.9 -1.8 0  2 -1.8 0  -2 -1.7 0  -1.9 -1.7 0  -1.8 -1.7 0  -1.7 -1.7 0  -1.6 -1.7 0  -1.5 -1.7 0  -1.4 -1.7 0  -1.3 -1.7 0  -1.2 -1.7 0  -1.1 -1.7 0  -1 -1.7 0  -0.8999999999999999 -1.7 0  -0.8 -1.7 0  -0.7 -1.7 0  -0.6000000000000001 -1.7 0  -0.5 -1.7 0  -0.3999999999999999 -1.7 0  -0.3 -1.7 0  -0.2 -1.7 0  -0.1000000000000001 -1.7 0  0 -1.7 0  0.1000000000000001 -1.7 0  0.2000000000000002 -1.7 0  0.2999999999999998 -1.7 0  0.3999999999999999 -1.7 0  0.5 -1.7 0  0.6000000000000001 -1.7 0  0.7000000000000002 -1.7 0  0.7999999999999998 -1.7 0  0.8999999999999999 -1.7 0  1 -1.7 0  1.1 -1.7 0  1.2 -1.7 0  1.3 -1.7 0  1.4 -1.7 0  1.5 -1.7 0  1.6 -1.7 0  1.7 -1.7 0  1.8 -1.7 0  1.9 -1.7 0  2 -1.7 0  -2 -1.6 0  -1.9 -1.6 0  -1.8 -1.6 0  -1.7 -1.6 0  -1.6 -1.6 0  -1.5 -1.6 0  -1.4 -1.6 0  -1.3 -1.6 0  -1.2 -1.6 0  -1.1 -1.6 0  -1 -1.6 0  -0.8999999999999999 -1.6 0  -0.8 -1.6 0  -0.7 -1.6 0  -0.6000000000000001 -1.6 0  -0.5 -1.6 0  -0.3999999999999999 -1.6 0  -0.3 -1.6 0  -0.2 -1.6 0  -0.1000000000000001 -1.6 0  0 -1.6 0  0.1000000000000001 -1.6 0  0.2000000000000002 -1.6 0  0.2999999999999998 -1.6 0  0.3999999999999999 -1.6 0  0.5 -1.6 0  0.6000000000000001 -1.6 0  0.7000000000000002 -1.6 0  0.7999999999999998 -1.6 0  0.8999999999999999 -1.6 0  1 -1.6 0  1.1 -1.6 0  1.2 -1.6 0  1.3 -1.6 0  1.4 -1.6 0  1.5 -1.6 0  1.6 -1.6 0  1.7 -1.6 0  1.8 -1.6 0  1.9 -1.6 0  2 -1.6 0  -2 -1.5 0  -1.9 -1.5 0  -1.8 -1.5 0  -1.7 -1.5 0  -1.6 -1.5 0  -1.5 -1.5 0  -1.4 -1.5 0  -1.3 -1.5 0  -1.2 -1.5 0  -1.1 -1.5 0  -1 -1.5 0  -0.8999999999999999 -1.5 0  -0.8 -1.5 0  -0.7 -1.5 0  -0.6000000000000001 -1.5 0  -0.5 -1.5 0  -0.3999999999999999 -1.5 0  -0.3 -1.5 0  -0.2 -1.5 0  -0.1000000000000001 -1.5 0  0 -1.5 0  0.1000000000000001 -1.5 0  0.2000000000000002 -1.5 0  0.2999999999999998 -1.5 0  0.3999999999999999 -1.5 0  0.5 -1.5 0  0.6000000000000001 -1.5 0  0.7000000000000002 -1.5 0  0.7999999999999998 -1.5 0  0.8999999999999999 -1.5 0  1 -1.5 0  1.1 -1.5 0  1.2 -1.5 0  1.3 -1.5 0  1.4 -1.5 0  1.5 -1.5 0  1.6 -1.5 0  1.7 -1.5 0  1.8 -1.5 0  1.9 -1.5 0  2 -1.5 0  -2 -1.4 0  -1.9 -1.4 0  -1.8 -1.4 0  -1.7 -1.4 0  -1.6 -1.4 0  -1.5 -1.4 0  -1.4 -1.4 0  -1.3 -1.4 0  -1.2 -1.4 0  -1.1 -1.4 0  -1 -1.4 0  -0.8999999999999999 -1.4 0  -0.8 -1.4 0  -0.7 -1.4 0  -0.6000000000000001 -1.4 0  -0.5 -1.4 0  -0.3999999999999999 -1.4 0  -0.3 -1.4 0  -0.2 -1.4 0  -0.1000000000000001 -1.4 0  0 -1.4 0  0.1000000000000001 -1.4 0  0.2000000000000002 -1.4 0  0.2999999999999998 -1.4 0  0.3999999999999999 -1.4 0  0.5 -1.4 0  0.6000000000000001 -1.4 0  0.7000000000000002 -1.4 0  0.7999999999999998 -1.4 0  0.8999999999999999 -1.4 0  1 -1.4 0  1.1 -1.4 0  1.2 -1.4 0  1.3 -1.4 0  1.4 -1.4 0  1.5 -1.4 0  1.6 -1.4 0  1.7 -1.4 0  1.8 -1.4 0  1.9 -1.4 0  2 -1.4 0  -2 -1.3 0  -1.9 -1.3 0  -1.8 -1.3 0  -1.7 -1.3 0  -1.6 -1.3 0  -1.5 -1.3 0  -1.4 -1.3 0  -1.3 -1.3 0  -1.2 -1.3 0  -1.1 -1.3 0  -1 -1.3 0  -0.8999999999999999 -1.3 0  -0.8 -1.3 0  -0.7 -1.3 0  -0.6000000000000001 -1.3 0  -0.5 -1.3 0  -0.3999999999999999 -1.3 0  -0.3 -1.3 0  -0.2 -1.3 0  -0.1000000000000001 -1.3 0  0 -1.3 0  0.1000000000000001 -1.3 0  0.2000000000000002 -1.3 0  0.2999999999999998 -1.3 0  0.3999999999999999 -1.3 0  0.5 -1.3 0  0.6000000000000001 -1.3 0  0.7000000000000002 -1.3 0  0.7999999999999998 -1.3 0  0.8999999999999999 -1.3 0  1 -1.3 0  1.1 -1.3 0  1.2 -1.3 0  1.3 -1.3 0  1.4 -1.3 0  1.5 -1.3 0  1.6 -1.3 0  1.7 -1.3 0  1.8 -1.3 0  1.9 -1.3 0  2 -1.3 0  -2 -1.2 0  -1.9 -1.2 0  -1.8 -1.2 0  -1.7 -1.2 0  -1.6 -1.2 0  -1.5 -1.2 0  -1.4 -1.2 0  -1.3 -1.2 0  -1.2 -1.2 0  -1.1 -1.2 0  -1 -1.2 0  -0.8999999999999999 -1.2 0  -0.8 -1.2 0  -0.7 -1.2 0  -0.6000000000000001 -1.2 0  -0.5 -1.2 0  -0.3999999999999999 -1.2 0  -0.3 -1.2 0  -0.2 -1.2 0  -0.1000000000000001 -1.2 0  0 -1.2 0  0.1000000000000001 -1.2 0  0.2000000000000002 -1.2 0  0.2999999999999998 -1.2 0  0.3999999999999999 -1.2 0  0.5 -1.2 0  0.6000000000000001 -1.2 0  0.7000000000000002 -1.2 0  0.7999999999999998 -1.2 0  0.8999999999999999 -1.2 0  1 -1.2 0  1.1 -1.2 0  1.2 -1.2 0  1.3 -1.2 0  1.4 -1.2 0  1.5 -1.2 0  1.6 -1.2 0  1.7 -1.2 0  1.8 -1.2 0  1.9 -1.2 0  2 -1.2 0  -2 -1.1 0  -1.9 -1.1 0  -1.8 -1.1 0  -1.7 -1.1 0  -1.6 -1.1 0  -1.5 -1.1 0  -1.4 -1.1 0  -1.3 -1.1 0  -1.2 -1.1 0  -1.1 -1.1 0  -1 -1.1 0  -0.8999999999999999 -1.1 0  -0.8 -1.1 0  -0.7 -1.1 0  -0.6000000000000001 -1.1 0  -0.5 -1.1 0  -0.3999999999999999 -1.1 0  -0.3 -1.1 0  -0.2 -1.1 0  -0.1000000000000001 -1.1 0  0 -1.1 0  0.1000000000000001 -1.1 0  0.2000000000000002 -1.1 0  0.2999999999999998 -1.1 0  0.3999999999999999 -1.1 0  0.5 -1.1 0  0.6000000000000001 -1.1 0  0.7000000000000002 -1.1 0  0.7999999999999998 -1.1 0  0.8999999999999999 -1.1 0  1 -1.1 0  1.1 -1.1 0  1.2 -1.1 0  1.3 -1.1 0  1.4 -1.1 0  1.5 -1.1 0  1.6 -1.1 0  1.7 -1.1 0  1.8 -1.1 0  1.9 -1.1 0  2 -1.1 0  -2 -1 0  -1.9 -1 0  -1.8 -1 0  -1.7 -1 0  -1.6 -1 0  -1.5 -1 0  -1.4 -1 0  -1.3 -1 0  -1.2 -1 0  -1.1 -1 0  -1 -1 0  -0.8999999999999999 -1 0  -0.8 -1 0  -0.7 -1 0  -0.6000000000000001 -1 0  -0.5 -1 0  -0.3999999999999999 -1 0  -0.3 -1 0  -0.2 -1 0  -0.1000000000000001 -1 0  0 -1 0  0.1000000000000001 -1 0  0.2000000000000002 -1 0  0.2999999999999998 -1 0  0.3999999999999999 -1 0  0.5 -1 0  0.6000000000000001 -1 0  0.7000000000000002 -1 0  0.7999999999999998 -1 0  0.8999999999999999 -1 0  1 -1 0  1.1 -1 0  1.2 -1 0  1.3 -1 0  1.4 -1 0  1.5 -1 0  1.6 -1 0  1.7 -1 0  1.8 -1 0  1.9 -1 0  2 -1 0  -2 -0.8999999999999999 0  -1.9 -0.8999999999999999 0  -1.8 -0.8999999999999999 0  -1.7 -0.8999999999999999 0  -1.6 -0.8999999999999999 0  -1.5 -0.8999999999999999 0  -1.4 -0.8999999999999999 0  -1.3 -0.8999999999999999 0  -1.2 -0.8999999999999999 0  -1.1 -0.8999999999999999 0  -1 -0.8999999999999999 0  -0.8999999999999999 -0.8999999999999999 0  -0.8 -0.8999999999999999 0  -0.7 -0.8999999999999999 0  -0.6000000000000001 -0.8999999999999999 0  -0.5 -0.8999999999999999 0  -0.3999999999999999 -0.8999999999999999 0  -0.3 -0.8999999999999999 0  -0.2 -0.8999999999999999 0  -0.1000000000000001 -0.8999999999999999 0  0 -0.8999999999999999 0  0.1000000000000001 -0.8999999999999999 0  0.2000000000000002 -0.8999999999999999 0  0.2999999999999998 -0.8999999999999999 0  0.3999999999999999 -0.8999999999999999 0  0.5 -0.8999999999999999 0  0.6000000000000001 -0.8999999999999999 0  0.7000000000000002 -0.8999999999999999 0  0.7999999999999998 -0.8999999999999999 0  0.8999999999999999 -0.8999999999999999 0  1 -0.8999999999999999 0  1.1 -0.8999999999999999 0  1.2 -0.8999999999999999 0  1.3 -0.8999999999999999 0  1.4 -0.8999999999999999 0  1.5 -0.8999999999999999 0  1.6 -0.8999999999999999 0  1.7 -0.8999999999999999 0  1.8 -0.8999999999999999 0  1.9 -0.8999999999999999 0  2 -0.8999999999999999 0  -2 -0.8 0  -1.9 -0.8 0  -1.8 -0.8 0  -1.7 -0.8 0  -1.6 -0.8 0  -1.5 -0.8 0  -1.4 -0.8 0  -1.3 -0.8 0  -1.2 -0.8 0  -1.1 -0.8 0  -1 -0.8 0  -0.8999999999999999 -0.8 0  -0.8 -0.8 0  -0.7 -0.8 0  -0.6000000000000001 -0.8 0  -0.5 -0.8 0  -0.3999999999999999 -0.8 0  -0.3 -0.8 0  -0.2 -0.8 0  -0.1000000000000001 -0.8 0  0 -0.8 0  0.1000000000000001 -0.8 0  0.2000000000000002 -0.8 0  0.2999999999999998 -0.8 0  0.3999999999999999 -0.8 0  0.5 -0.8 0  0.6000000000000001 -0.8 0  0.7000000000000002 -0.8 0  0.7999999999999998 -0.8 0  0.8999999999999999 -0.8 0  1 -0.8 0  1.1 -0.8 0  1.2 -0.8 0  1.3 -0.8 0  1.4 -0.8 0  1.5 -0.8 0  1.6 -0.8 0  1.7 -0.8 0  1.8 -0.8 0  1.9 -0.8 0  2 -0.8 0  -2 -0.7 0  -1.9 -0.7 0  -1.8 -0.7 0  -1.7 -0.7 0  -1.6 -0.7 0  -1.5 -0.7 0  -1.4 -0.7 0  -1.3 -0.7 0  -1.2 -0.7 0  -1.1 -0.7 0  -1 -0.7 0  -0.8999999999999999 -0.7 0  -0.8 -0.7 0  -0.7 -0.7 0  -0.6000000000000001 -0.7 0  -0.5 -0.7 0  -0.3999999999999999 -0.7 0  -0.3 -0.7 0  -0.2 -0.7 0  -0.1000000000000001 -0.7 0  0 -0.7 0  0.1000000000000001 -0.7 0  0.2000000000000002 -0.7 0  0.2999999999999998 -0.7 0  0.3999999999999999 -0.7 0  0.5 -0.7 0  0.600000000000000
[...]
<PointData  Scalars="f_1726"> 
<DataArray  type="Float64"  Name="f_1726"  format="ascii">0.0000000000000000e+00  0.0000000000000000e+00  0.0000000000000000e+00  0.0000000000000000e+00  0.0000000000000000e+00  0.0000000000000000e+00  0.0000000000000000e+00  0.0000000000000000e+00  0.0000000000000000e+00  0.0000000000000000e+00  0.0000000000000000e+00  0.0000000000000000e+00  0.0000000000000000e+00  0.0000000000000000e+00  0.0000000000000000e+00  0.0000000000000000e+00  0.0000000000000000e+00  0.0000000000000000e+00  0.0000000000000000e+00  0.0000000000000000e+00  0.0000000000000000e+00  0.0000000000000000e+00  0.0000000000000000e+00  0.0000000000000000e+00  0.0000000000000000e+00  0.0000000000000000e+00  0.0000000000000000e+00  0.0000000000000000e+00  0.0000000000000000e+00  0.0000000000000000e+00  0.0000000000000000e+00  0.0000000000000000e+00  0.0000000000000000e+00  0.0000000000000000e+00  0.0000000000000000e+00  0.0000000000000000e+00  0.0000000000000000e+00  0.0000000000000000e+00  0.0000000000000000e+00  0.0000000000000000e+00  0.0000000000000000e+00  0.0000000000000000e+00  -3.9554441393650284e-11  -4.6095133084708364e-11  3.0290423096282167e-10  -7.2991331351942730e-11  -1.5341041296894413e-09  8.2653049640001670e-10  7.5482304483708271e-09  1.0385054239625802e-09  -3.1331334012844115e-08  -6.2517494713050489e-08  -5.5106285341536144e-08  -1.8993562389839840e-08  5.1403444949923320e-09  5.2077061749601824e-09  -4.9430712276775234e-10  -9.9815707546779389e-10  1.6722966956877462e-10  1.5363004926239628e-10  -5.9740735609424783e-11  -1.0914444771728655e-11  1.3006750682514129e-11  -2.5515280265360007e-12  -1.1123889021759314e-12  8.3093862489671411e-13  -1.8242114544403656e-13  -4.1444535783545184e-14  4.5778434720301919e-14  -1.6421350796145469e-14  1.9273683701129202e-15  1.2338632924294385e-15  -9.1962433117406045e-16  3.4463250846051850e-16  -7.6214124233284806e-17  6.3101356097494465e-19  8.9360371888400577e-18  -5.3753675949585826e-18  2.1870720370820657e-18  -7.2499325810972383e-19  2.2981812430275542e-19  0.0000000000000000e+00  0.0000000000000000e+00  -4.6095133084708357e-11  3.3149773951347455e-10  -2.9489988873175103e-10  -1.4522071309191225e-09  3.0496117666302593e-09  5.6996608699714040e-09  -1.6420740210961320e-08  -3.2076137182148721e-08  4.7827810329572343e-08  2.0498940774933617e-07  2.6761183290076229e-07  1.5673271376626618e-07  1.2676832093689237e-08  -3.0383154911798368e-08  -6.9061577773697676e-09  5.6408700088796968e-09  9.5434252285261309e-10  -1.1299666095086998e-09  5.1587443797001965e-11  1.7713934509064038e-10  -5.9696797355838292e-11  -8.6334271275067582e-12  1.2452244909153826e-11  -3.6018857609723902e-12  -3.3554945003331058e-13  6.7609111021004179e-13  -2.6962438850642044e-13  3.7501546345279821e-14  1.7847537919786590e-14  -1.4375743328679522e-14  5.4157159613802584e-15  -1.1562845026168513e-15  -2.1591682494903107e-17  1.5246875596691085e-16  -8.6496751847958643e-17  3.3815325109782750e-17  -1.0693031624487160e-17  2.9047098362865633e-18  -7.2499325810972431e-19  0.0000000000000000e+00  0.0000000000000000e+00  3.0290423096282193e-10  -2.9489988873175124e-10  -1.3276813821048796e-09  3.9320043983942975e-09  2.1692902136695634e-09  -2.3326793308766652e-08  1.4474291244612134e-09  1.1652779183184798e-07  4.4253562753190306e-08  -4.7400513896925206e-07  -1.0087533406746828e-06  -8.9419354327401551e-07  -2.9018643545868985e-07  9.5346986122414580e-08  7.7668957949930121e-08  -1.3801415523973635e-08  -1.3898971113236140e-08  4.1017937385772864e-09  1.6446528387698430e-09  -1.0824674988801367e-09  4.4094501949087221e-11  1.5741988911256599e-10  -6.4565271042337993e-11  1.9193728305178898e-12  8.7349330522278845e-12  -4.2352917290337107e-12  7.8019635121486181e-13  1.9816537422706614e-13  -2.0735605601237274e-13  8.4028216813941269e-14  -1.9217393166505750e-14  2.2092899303028813e-16  2.2151902802243062e-15  -1.3135970086525605e-15  5.2152813426720488e-16  -1.6651669720822455e-16  4.5123565966649655e-17  -1.0693031624487110e-17  2.1870720370820580e-18  0.0000000000000000e+00  0.0000000000000000e+00  -7.2991331351942614e-11  -1.4522071309191235e-09  3.9320043983943000e-09  7.3792957022305990e-10  -2.3892478362183900e-08  2.7206676864009594e-08  1.0428299792307345e-07  -1.9018928565981160e-07  -5.2546184776457013e-07  5.7130237616785364e-07  3.0356453943464279e-06  4.0915742485259292e-06  2.3439664813621572e-06  1.0814541762580225e-07  -4.6548782881195369e-07  -6.5827904230618730e-08  8.7895356747582135e-08  2.6452580436383295e-09  -1.5640464167819050e-08  3.2571552060323996e-09  1.6037630142627324e-09  -1.0474457459441968e-09  1.4054051988693899e-10  1.0081081996961430e-10  -6.4336044963899129e-11  1.5121983394412450e-11  1.7017270408963622e-12  -2.9240197883007934e-12  1.3011199065872051e-12  -3.2160868803111587e-13  1.3580919301405935e-14  3.1837781870029791e-14  -2.0036717045423179e-14  8.1157674288781982e-15  -2.6140005859079361e-15  7.1097177462597035e-16  -1.6651669720822529e-16  3.3815325109782787e-17  -5.3753675949586018e-18  0.0000000000000000e+00  0.0000000000000000e+00  -1.5341041296894426e-09  3.0496117666302597e-09  2.1692902136695655e-09  -2.3892478362183926e-08  3.5534871902091567e-08  7.8610657684677075e-08  -3.0027830504010418e-07  -1.6692607381034027e-07  1.6199408169789740e-06  1.1153504703543173e-06  -6.5976071165283640e-06  -1.5248965356896885e-05  -1.3591040446575523e-05  -4.0598193232563685e-06  1.6517503536350200e-06  1.0348538059760101e-06  -2.9895830489457909e-07  -1.5935944324227690e-07  7.8222666102388050e-08  8.4212067433714762e-09  -1.5081419647895090e-08  3.7102250668742893e-09  9.2268342779696051e-10  -9.3166660467727116e-10  2.7553952704430101e-10  3.6161767918056320e-12  -3.9925641551608134e-11  1.9959779385201154e-11  -5.3511632025184384e-12  3.7900410027608071e-13  4.5120007807352722e-13  -3.0508886832210283e-13  1.2635419308282091e-13  -4.1063465357134963e-14  1.1193259652246208e-14  -2.6140005859079309e-15  5.2152813426720586e-16  -8.6496751847958470e-17  8.9360371888400531e-18  0.0000000000000000e+00  0.0000000000000000e+00  8.2653049640001877e-10  5.6996608699714107e-09  -2.3326793308766658e-08  2.7206676864009604e-08  7.8610657684677207e-08  -3.2436461349666029e-07  8.7839582009503171e-08  1.7098036010887203e-06  -1.8367939487505349e-06  -8.3524320562795074e-06  6.0755490694673577e-06  4.4677800987032661e-05  6.2564716747581363e-05  3.4853691692189765e-05  1.7025717059799742e-07  -6.9962672916426433e-06  -3.2979341104239562e-07  1.2808643109996905e-06  -1.4350627644845075e-07  -1.8058554678853322e-07  7.4864209672553165e-08  3.0997106769357536e-09  -1.2567063273100002e-08  4.7591485301123679e-09  -3.1517773503758407e-10  -5.1877544383039631e-10  3.0220343069304085e-10  -8.8433737592186437e-11  8.6799483922478736e-12  6.2628823569307034e-12  -4.6306962283978575e-12  1.9671682850493278e-12  -6.4570057310357293e-13  1.7640749157649198e-13  -4.1063465357134956e-14  8.1157674288781871e-15  -1.3135970086525641e-15  1.5246875596691087e-16  6.3101356097485220e-19  0.0000000000000000e+00  0.0000000000000000e+00  7.5482304483708320e-09  -1.6420740210961343e-08  1.4474291244612215e-09  1.0428299792307350e-07  -3.0027830504010434e-07  8.7839582009502482e-08  1.6266630976907639e-06  -3.2466579664182729e-06  -5.1560574788623267e-06  2.1281487803725529e-05  2.3660417774498902e-05  -9.0084244976556619e-05  -2.3123837874319901e-04  -2.0730811242306621e-04  -5.5539583616327064e-05  2.8267342035477173e-05  1.2897025658239497e-05  -5.6927025719174500e-06  -1.4043304268524835e-06  1.2566719817495647e-06  -1.3359670782209039e-07  -1.5021112526526186e-07  7.7788831490014574e-08  -1.0773060736616005e-08  -6.1993131331367523e-09  4.4934528473234475e-09  -1.4502056889798592e-09  1.8131912396221228e-10  8.4342701656068795e-11  -6.9997126267503954e-11  3.0624127081378983e-11  -1.0165359649870720e-11  2.7841699775280104e-12  -6.4570057310357393e-13  1.2635419308282116e-13  -2.0036717045423211e-14  2.2151902802243201e-15  -2.1591682494904515e-17  -7.6214124233284535e-17  0.0000000000000000e+00  0.0000000000000000e+00  1.0385054239625701e-09  -3.2076137182148721e-08  1.1652779183184806e-07  -1.9018928565981181e-07  -1.6692607381034064e-07  1.7098036010887218e-06  -3.2466579664182703e-06  -3.5027058786177910e-06  2.4944334931409925e-05  -1.0062831525818932e-05  -1.2849233522218155e-04  4.9033632302125097e-05  6.5569056203621402e-04  9.6226404317869706e-04  5.1713135194556166e-04  -2.3064453526982240e-05  -1.0264421001430715e-04  6.0538533061531152e-06  1.6906542688093543e-05  -4.6435577454953959e-06  -1.3761179377091326e-06  1.1871464840654342e-06  -2.5597729190713747e-07  -6.2524674449172937e-08  6.5088922316507152e-08  -2.3558664746727185e-08  3.5903965517120700e-09  1.0836834653070757e-09  -1.0523816075211471e-09  4.7666467504821049e-10  -1.6025509019343520e-10  4.4014284074061457e-11  -1.0165359649870679e-11  1.9671682850493221e-12  -3.0508886832210167e-13  3.1837781870029595e-14  2.2092899303031180e-16  -1.1562845026168495e-15  3.4463250846051751e-16  0.0000000000000000e+00  0.0000000000000000e+00  -3.1331334012844135e-08  4.7827810329572416e-08  4.4253562753190233e-08  -5.2546184776457034e-07  1.6199408169789757e-06  -1.8367939487505351e-06  -5.1560574788623369e-06  2.4944334931409932e-05  -2.2283596432633662e-05  -1.0963763623735570e-04  2.5288761067954391e-04  4.5903833940258800e-04  -1.1930139990663665e-03  -3.5221759334261985e-03  -3.1778552975989648e-03  -7.3216632866710527e-04  4.7742352856082037e-04  1.4080456787379916e-04  -9.7839579928294551e-05  -2.8767323285604905e-06  1.6329850357818044e-05  -5.1924773198786707e-06  -3.6619961014097905e-07  9.0566745170060589e-07  -3.7802366459323429e-07  6.8625983574194648e-08  1.2833548752062117e-08  -1.5707790672013590e-08  7.4168657870451743e-09  -2.5304536161176159e-09  6.9716430394559075e-10  -1.6025509019343590e-10  3.0624127081379035e-11  -4.6306962283978793e-12  4.5120007807353167e-13  1.3580919301404992e-14  -1.9217393166505646e-14  5.4157159613802253e-15  -9.1962433117405690e-16  0.0000000000000000e+00  0.0000000000000000e+00  -6.2517494713050436e-08  2.0498940774933601e-07  -4.7400513896925227e-07  5.7130237616785417e-07  1.1153504703543165e-06  -8.3524320562795142e-06  2.1281487803725546e-05  -1.0062831525818902e-05  -1.0963763623735575e-04  3.0418332057987013e-04  1.3705523063927398e-04  -1.8848340364578436e-03  1.1826686844609584e-05  9.5759637767725333e-03  1.4917688382944754e-02  7.6411472295138446e-03  -8.0639489724313633e-04  -1.4433786992560096e-03  2.6692892502446853e-04  1.8361397169494248e-04  -9.3837804684904894e-05  4.8895118585705885e-06  1.1774979317762873e-05  -5.9612312629499778e-06  1.2782323232687965e-06  1.2794326132546457e-07  -2.3209858810601658e-07  1.1533964507666689e-07  -4.0032248427637657e-08  1.1068286011567792e-08  -2.5304536161176122e-09  4.7666467504821132e-10  -6.9997126267503863e-11  6.2628823569307010e-12  3.7900410027608182e-13  -3.2160868803111557e-13  8.4028216813941496e-14  -1.4375743328679506e-14  1.2338632924294398e-15  0.0000000000000000e+00  0.0000000000000000e+00  -5.5106285341536078e-08  2.6761183290076202e-07  -1.0087533406746820e-06  3.0356453943464262e-06  -6.5976071165283649e-06  6.0755490694673654e-06  2.3660417774498902e-05  -1.2849233522218165e-04  2.5288761067954391e-04  1.3705523063927430e-04  -1.8925084586558932e-03  2.3945230416636916e-03  8.3699266928487955e-03  -1.4953418823965801e-02  -5.3972187017806934e-02  -4.9039133600349706e-02  -8.9957594970100467e-03  7.9182535148407465e-03  1.0620497637049598e-03  -1.4877216815526761e-03  2.5210414789066918e-04  1.3393473965223827e-04  -9.1532716788531081e-05  2.3311120624129735e-05  6.9703521403869977e-07  -3.3796011114919662e-06  1.7919070562537320e-06  -6.3476543043106195e-07  1.7621375928636325e-07  -4.0032248427637676e-08  7.4168657870451718e-09  -1.0523816075211510e-09  8.4342701656069170e-11  8.6799483922477783e-12  -5.3511632025184174e-12  1.3011199065871988e-12  -2.0735605601237231e-13  1.7847537919786433e-14  1.9273683701129423e-15  0.0000000000000000e+00  0.0000000000000000e+00  -1.8993562389839801e-08  1.5673271376626597e-07  -8.9419354327401434e-07  4.0915742485259267e-06  -1.5248965356896877e-05  4.4677800987032661e-05  -9.0084244976556673e-05  4.9033632302125287e-05  4.5903833940258871e-04  -1.8848340364578447e-03  2.3945230416636898e-03  6.3667065981264648e-03  -2.5422048317606735e-02  -1.2509073433104562e-02  1.3858240539767752e-01  2.3391150565658889e-01  1.1197464407104894e-01  -2.0533047123460237e-02  -1.8640485124241598e-02  6.5283677803328324e-03  1.0525761723632198e-03  -1.3432942397903786e-03  4.1665549593798560e-04  -1.2815330578912241e-05  -4.8115161423573011e-05  2.7793623053069556e-05  -1.0093266848084768e-05  2.8151255731720911e-06  -6.3476543043106322e-07  1.1533964507666716e-07  -1.5707790672013626e-08  1.0836834653070852e-09  1.8131912396221107e-10  -8.8433737592186295e-11  1.9959779385201122e-11  -2.9240197883007865e-12  1.9816537422706629e-13  3.7501546345279771e-14  -1.6421350796145462e-14  0.0000000000000000e+00  0.0000000000000000e+00  5.1403444949923411e-09  1.2676832093689123e-08  -2.9018643545868916e-07  2.3439664813621525e-06  -1.3591040446575506e-05  6.2564716747581296e-05  -2.3123837874319887e-04  6.5569056203621391e-04  -1.1930139990663678e-03  1.1826686844609332e-05  8.3699266928487989e-03  -2.5422048317606742e-02  7.6016631134514633e-03  1.4365406637990696e-01  -1.6641957177918026e-01  -8.3415125543352164e-01  -7.6391188822232492e-01  -9.3502374603848568e-02  1.2714047117052107e-01  -4.6103908978479069e-03  -1.8040219694001273e-02  7.2709062520908817e-03  -6.3899388061655572e-04  -6.5982929205156285e-04  4.2990104173710412e-04  -1.6105541105440412e-04  4.5170128925602944e-05  -1.0093266848084727e-05  1.7919070562537274e-06  -2.3209858810601560e-07  1.2833548752061994e-08  3.5903965517120877e-09  -1.4502056889798550e-09  3.0220343069303981e-10  -3.9925641551607882e-11  1.7017270408963260e-12  7.8019635121486817e-13  -2.6962438850642049e-13  4.5778434720301906e-14  0.0000000000000000e+00  0.0000000000000000e+00  5.2077061749601791e-09  -3.0383154911798374e-08  9.5346986122414713e-08  1.0814541762580107e-07  -4.0598193232563608e-06  3.4853691692189717e-05  -2.0730811242306599e-04  9.6226404317869641e-04  -3.5221759334261972e-03  9.5759637767725420e-03  -1.4953418823965807e-02  -1.2509073433104574e-02  1.4365406637990702e-01  -2.8225899989331205e-01  -4.1376243539504293e-01  1.9677037552011396e+00  3.7332779910249463e+00  1.6111582153571764e+00  -4.6497825014194771e-01  -1.9328708069528033e-01  1.2218478501434558e-01  -1.8243163497768056e-02  -8.4328212623484659e-03  6.6168729313437246e-03  -2.5816160476112107e-03  7.2891838992436000e-04  -1.6105541105440488e-04  2.7793623053069617e-05  -3.3796011114919861e-06  1.2794326132546840e-07  6.8625983574193801e-08  -2.3558664746727122e-08  4.4934528473234219e-09  -5.1877544383039341e-10  3.6161767918053610e-12  1.5121983394412440e-11  -4.2352917290337180e-12  6.7609111021003977e-13  -4.1444535783545001e-14  0.0000000000000000e+00  0.0000000000000000e+00  -4.9430712276775699e-10  -6.9061577773697444e-09  7.7668957949930068e-08  -4.6548782881195358e-07  1.6517503536350227e-06  1.7025717059797812e-07  -5.5539583616326935e-05  5.1713135194556101e-04  -3.1778552975989614e-03  1.4917688382944742e-02  -5.3972187017806955e-02  1.3858240539767760e-01  -1.6641957177918035e-01  -4.1376243539504309e-01  2.2438336521229783e+00  -1.2614010323443223e+00  -1.3063171779868282e+01  -1.2072735003032795e+01  -4.6537688211254852e-01  1.8919235834642940e+00  -4.4240767293108513e-01  -9.1341700676355803e-02  1.0089764605244148e-01  -4.1635430883756805e-02  1.1854138101987982e-02  -2.5816160476112076e-03  4.2990104173710504e-04  -4.8115161423572950e-05  6.9703521403869649e-07  1.2782323232687972e-06  -3.7802366459323387e-07  6.5088922316507297e-08  -6.1993131331367465e-09  -3.1517773503758366e-10  2.7553952704430085e-10  -6.4336044963899052e-11  8.7349330522279023e-12  -3.3554945003330962e-13  -1.8242114544403656e-13  0.0000000000000000e+00  0.0000000000000000e+00  -9.9815707546779451e-10  5.6408700088797067e-09  -1.3801415523973705e-08  -6.5827904230618307e-08  1.0348538059760084e-06  -6.9962672916426391e-06  2.8267342035477177e-05  -2.3064453526982348e-05  -7.3216632866710473e-04  7.6411472295138394e-03  -4.9039133600349685e-02  2.3391150565658875e-01  -8.3415125543352153e-01  1.9677037552011394e+00  -1.2614010323443205e+00  -1.0200185823684951e+01  2.6613802343684533e+01  6.1476351567240293e+01  2.2079667940537639e+01  -9.8539136195307595e+00  -4.8725838304795366e-01  1.5083790028218214e+00  -6.7734061494709596e-01  1.9493762039329590e-01  -4.1635430883756798e-02  6.6168729313437194e-03  -6.5982929205156589e-04  -1.2815330578911787e-05  2.3311120624129647e-05  -5.9612312629499567e-06  9.0566745170060080e-07  -6.2524674449172315e-08  -1.0773060736616096e-08  4.7591485301123860e-09  -9.3166660467727385e-10  1.0081081996961448e-10  1.9193728305178785e-12  -3.6018857609723877e-12  8.3093862489671461e-13  0.0000000000000000e+00  0.0000000000000000e+00  1.6722966956877537e-10  9.5434252285261123e-10  -1.3898971113236140e-08  8.7895356747582202e-08  -2.9895830489457973e-07  -3.2979341104239233e-07  1.2897025658239488e-05  -1.0264421001430715e-04  4.7742352856082080e-04  -8.0639489724313720e-04  -8.9957594970100432e-03  1.1197464407104896e-01  -7.6391188822232492e-01  3.7332779910249472e+00  -1.3063171779868282e+01  2.6613802343684529e+01  1.0997645044829044e+01  -2.0934938914926559e+02  -1.9562530555960925e+02  1.7079364366134062e+01  2.1424541651765448e+01  -1.1167403660472468e+01  3.2617722040310890e+00  -6.7734061494709696e-01  1.0089764605244170e-01  -8.4328212623485110e-03  -6.3899388061654911e-04  4.1665549593798386e-04  -9.1532716788530973e-05  1.1774979317762858e-05  -3.6619961014097900e-07  -2.5597729190713805e-07  7.7788831490014468e-08  -1.2567063273100005e-08  9.2268342779695658e-10  1.4054051988693969e-10  -6.4565271042338290e-11  1.2452244909153839e-11  -1.1123889021759348e-12  0.0000000000000000e+00  0.0000000000000000e+00  1.5363004926239646e-10  -1.1299666095087014e-09  4.1017937385772922e-09  2.6452580436383216e-09  -1.5935944324227706e-07  1.2808643109996926e-06  -5.6927025719174644e-06  6.0538533061531829e-06  1.4080456787379886e-04  -1.4433786992560102e-03  7.9182535148407535e-03  -2.0533047123460279e-02  -9.3502374603848373e-02  1.6111582153571751e+00  -1.2072735003032793e+01  6.1476351567240307e+01  -2.0934938914926556e+02  2.9740163655215810e+02  1.0855816414733404e+03  2.4782097236574288e+02  -1.8845868385449532e+02  5.6278680796651514e+01  -1.1167403660472429e+01  1.5083790028218171e+00  -9.1341700676355053e-02  -1.8243163497768083e-02  7.2709062520908939e-03  -1.3432942397903745e-03  1.3393473965223765e-04  4.8895118585707164e-06  -5.1924773198786860e-06  1.1871464840654406e-06  -1.5021112526526216e-07  3.0997106769358115e-09  3.7102250668742822e-09  -1.0474457459441939e-09  1.5741988911256599e-10  -8.6334271275066919e-12  -2.5515280265360076e-12  0.0000000000000000e+00  0.0000000000000000e+00  -5.9740735609424886e-11  5.1587443797002108e-11  1.6446528387698455e-09  -1.5640464167819076e-08  7.8222666102388182e-08  -1.4350627644845131e-07  -1.4043304268524826e-06  1.6906542688093560e-05  -9.7839579928294700e-05  2.6692892502446928e-04  1.0620497637049576e-03  -1.8640485124241608e-02  1.2714047117052119e-01  -4.6497825014194805e-01  -4.6537688211254513e-01  2.2079667940537636e+01  -1.9562530555960913e+02  1.0855816414733401e+03  -3.5309862302527463e+03  -3.3484629975799603e+03  1.0401938100083917e+03  -1.8845868385449609e+02  2.1424541651765512e+01  -4.8725838304797048e-01  -4.4240767293108207e-01  1.2218478501434485e-01  -1.8040219694001221e-02  1.0525761723632033e-03  2.5210414789067140e-04  -9.3837804684905165e-05  1.6329850357818075e-05  -1.3761179377091385e-06  -1.3359670782209023e-07  7.4864209672553257e-08  -1.508141964789511