<?xml version="1.0"?>
<VTKFile type="UnstructuredGrid"  version="0.1"  >
<UnstructuredGrid>
<Piece  NumberOfPoints="1681" NumberOfCells="3200">
<Points>
<DataArray  type="Float64"  NumberOfComponents="3"  format="ascii">-2 -2 0  -1.9 -2 0  -1.8 -2 0  -1.7 -2 0  -1.6 -2 0  -1.5 -2 0  -1.4 -2 0  -1.3 -2 0  -1.2 -2 0  -1.1 -2 0  -1 -2 0  -0.8999999999999999 -2 0  -0.8 -2 0  -0.7 -2 0  -0.6000000000000001 -2 0  -0.5 -2 0  -0.3999999999999999 -2 0  -0.3 -2 0  -0.2 -2 0  -0.1000000000000001 -2 0  0 -2 0  0.1000000000000001 -2 0  0.2000000000000002 -2 0  0.2999999999999998 -2 0  0.3999999999999999 -2 0  0.5 -2 0  0.6000000000000001 -2 0  0.7000000000000002 -2 0  0.7999999999999998 -2 0  0.8999999999999999 -2 0  1 -2 0  1.1 -2 0  1.2 -2 0  1.3 -2 0  1.4 -2 0  1.5 -2 0  1.6 -2 0  1.7 -2 0  1.8 -2 0  1.9 -2 0  2 -2 0  -2 -1.9 0  -1.9 -1.9 0  -1.8 -1.9 0  -1.7 -1.9 0  -1.6 -1.9 0  -1.5 -1.9 0  -1.4 -1.9 0  -1.3 -1.9 0  -1.2 -1.9 0  -1.1 -1.9 0  -1 -1.9 0  -0.8999999999999999 -1.9 0  -0.8 -1.9 0  -0.7 -1.9 0  -0.6000000000000001 -1.9 0  -0.5 -1.9 0  -0.3999999999999999 -1.9 0  -0.3 -1.9 0  -0.2 -1.9 0  -0.1000000000000001 -1.9 0  0 -1.9 0  0.1000000000000001 -1.9 0  0.2000000000000002 -1.9 0  0.2999999999999998 -1.9 0  0.3999999999999999 -1.9 0  0.5 -1.9 0  0.6000000000000001 -1.9 0  0.7000000000000002 -1.9 0  0.7999999999999998 -1.9 0  0.8999999999999999 -1.9 0  1 -1.9 0  1.1 -1.9 0  1.2 -1.9 0  1.3 -1.9 0  1.4 -1.9 0  1.5 -1.9 0  1.6 -1.9 0  1.7 -1.9 0  1.8 -1.9 0  1.9 -1.9 0  2 -1.9 0  -2 -1.8 0  -1.9 -1.8 0  -1.8 -1.8 0  -1.7 -1.8 0  -1.6 -1.8 0  -1.5 -1.8 0  -1.4 -1.8 0  -1.3 -1.8 0  -1.2 -1.8 0  -1.1 -1.8 0  -1 -1.8 0  -0.8999999999999999 -1.8 0  -0.8 -1.8 0  -0.7 -1.8 0  -0.6000000000000001 -1.8 0  -0.5 -1.8 0  -0.3999999999999999 -1.8 0  -0.3 -1.8 0  -0.2 -1.8 0  -0.1000000000000001 -1.8 0  0 -1.8 0  0.1000000000000001 -1.8 0  0.2000000000000002 -1.8 0  0.2999999999999998 -1.8 0  0.3999999999999999 -1.8 0  0.5 -1.8 0  0.6000000000000001 -1.8 0  0.7000000000000002 -1.8 0  0.7999999999999998 -1.8 0  0.8999999999999999 -1.8 0  1 -1.8 0  1.1 -1.8 0  1.2 -1.8 0  1.3 -1.8 0  1.4 -1.8 0  1.5 -1.8 0  1.6 -1.8 0  1.7 -1.8 0  1.8 -1.8 0  1.9 -1.8 0  2 -1.8 0  -2 -1.7 0  -1.9 -1.7 0  -1.8 -1.7 0  -1.7 -1.7 0  -1.6 -1.7 0  -1.5 -1.7 0  -1.4 -1.7 0  -1.3 -1.7 0  -1.2 -1.7 0  -1.1 -1.7 0  -1 -1.7 0  -0.8999999999999999 -1.7 0  -0.8 -1.7 0  -0.7 -1.7 0  -0.6000000000000001 -1.7 0  -0.5 -1.7 0  -0.3999999999999999 -1.7 0  -0.3 -1.7 0  -0.2 -1.7 0  -0.1000000000000001 -1.7 0  0 -1.7 0  0.1000000000000001 -1.7 0  0.2000000000000002 -1.7 0  0.2999999999999998 -1.7 0  0.3999999999999999 -1.7 0  0.5 -1.7 0  0.6000000000000001 -1.7 0  0.7000000000000002 -1.7 0  0.7999999999999998 -1.7 0  0.8999999999999999 -1.7 0  1 -1.7 0  1.1 -1.7 0  1.2 -1.7 0  1.3 -1.7 0  1.4 -1.7 0  1.5 -1.7 0  1.6 -1.7 0  1.7 -1.7 0  1.8 -1.7 0  1.9 -1.7 0  2 -1.7 0  -2 -1.6 0  -1.9 -1.6 0  -1.8 -1.6 0  -1.7 -1.6 0  -1.6 -1.6 0  -1.5 -1.6 0  -1.4 -1.6 0  -1.3 -1.6 0  -1.2 -1.6 0  -1.1 -1.6 0  -1 -1.6 0  -0.8999999999999999 -1.6 0  -0.8 -1.6 0  -0.7 -1.6 0  -0.6000000000000001 -1.6 0  -0.5 -1.6 0  -0.3999999999999999 -1.6 0  -0.3 -1.6 0  -0.2 -1.6 0  -0.1000000000000001 -1.6 0  0 -1.6 0  0.1000000000000001 -1.6 0  0.2000000000000002 -1.6 0  0.2999999999999998 -1.6 0  0.3999999999999999 -1.6 0  0.5 -1.6 0  0.6000000000000001 -1.6 0  0.7000000000000002 -1.6 0  0.7999999999999998 -1.6 0  0.8999999999999999 -1.6 0  1 -1.6 0  1.1 -1.6 0  1.2 -1.6 0  1.3 -1.6 0  1.4 -1.6 0  1.5 -1.6 0  1.6 -1.6 0  1.7 -1.6 0  1.8 -1.6 0  1.9 -1.6 0  2 -1.6 0  -2 -1.5 0  -1.9 -1.5 0  -1.8 -1.5 0  -1.7 -1.5 0  -1.6 -1.5 0  -1.5 -1.5 0  -1.4 -1.5 0  -1.3 -1.5 0  -1.2 -1.5 0  -1.1 -1.5 0  -1 -1.5 0  -0.8999999999999999 -1.5 0  -0.8 -1.5 0  -0.7 -1.5 0  -0.6000000000000001 -1.5 0  -0.5 -1.5 0  -0.3999999999999999 -1.5 0  -0.3 -1.5 0  -0.2 -1.5 0  -0.1000000000000001 -1.5 0  0 -1.5 0  0.1000000000000001 -1.5 0  0.2000000000000002 -1.5 0  0.2999999999999998 -1.5 0  0.3999999999999999 -1.5 0  0.5 -1.5 0  0.6000000000000001 -1.5 0  0.7000000000000002 -1.5 0  0.7999999999999998 -1.5 0  0.8999999999999999 -1.5 0  1 -1.5 0  1.1 -1.5 0  1.2 -1.5 0  1.3 -1.5 0  1.4 -1.5 0  1.5 -1.5 0  1.6 -1.5 0  1.7 -1.5 0  1.8 -1.5 0  1.9 -1.5 0  2 -1.5 0  -2 -1.4 0  -1.9 -1.4 0  -1.8 -1.4 0  -1.7 -1.4 0  -1.6 -1.4 0  -1.5 -1.4 0  -1.4 -1.4 0  -1.3 -1.4 0  -1.2 -1.4 0  -1.1 -1.4 0  -1 -1.4 0  -0.8999999999999999 -1.4 0  -0.8 -1.4 0  -0.7 -1.4 0  -0.6000000000000001 -1.4 0  -0.5 -1.4 0  -0.3999999999999999 -1.4 0  -0.3 -1.4 0  -0.2 -1.4 0  -0.1000000000000001 -1.4 0  0 -1.4 0  0.1000000000000001 -1.4 0  0.2000000000000002 -1.4 0  0.2999999999999998 -1.4 0  0.3999999999999999 -1.4 0  0.5 -1.4 0  0.6000000000000001 -1.4 0  0.7000000000000002 -1.4 0  0.7999999999999998 -1.4 0  0.8999999999999999 -1.4 0  1 -1.4 0  1.1 -1.4 0  1.2 -1.4 0  1.3 -1.4 0  1.4 -1.4 0  1.5 -1.4 0  1.6 -1.4 0  1.7 -1.4 0  1.8 -1.4 0  1.9 -1.4 0  2 -1.4 0  -2 -1.3 0  -1.9 -1.3 0  -1.8 -1.3 0  -1.7 -1.3 0  -1.6 -1.3 0  -1.5 -1.3 0  -1.4 -1.3 0  -1.3 -1.3 0  -1.2 -1.3 0  -1.1 -1.3 0  -1 -1.3 0  -0.8999999999999999 -1.3 0  -0.8 -1.3 0  -0.7 -1.3 0  -0.6000000000000001 -1.3 0  -0.5 -1.3 0  -0.3999999999999999 -1.3 0  -0.3 -1.3 0  -0.2 -1.3 0  -0.1000000000000001 -1.3 0  0 -1.3 0  0.1000000000000001 -1.3 0  0.2000000000000002 -1.3 0  0.2999999999999998 -1.3 0  0.3999999999999999 -1.3 0  0.5 -1.3 0  0.6000000000000001 -1.3 0  0.7000000000000002 -1.3 0  0.7999999999999998 -1.3 0  0.8999999999999999 -1.3 0  1 -1.3 0  1.1 -1.3 0  1.2 -1.3 0  1.3 -1.3 0  1.4 -1.3 0  1.5 -1.3 0  1.6 -1.3 0  1.7 -1.3 0  1.8 -1.3 0  1.9 -1.3 0  2 -1.3 0  -2 -1.2 0  -1.9 -1.2 0  -1.8 -1.2 0  -1.7 -1.2 0  -1.6 -1.2 0  -1.5 -1.2 0  -1.4 -1.2 0  -1.3 -1.2 0  -1.2 -1.2 0  -1.1 -1.2 0  -1 -1.2 0  -0.8999999999999999 -1.2 0  -0.8 -1.2 0  -0.7 -1.2 0  -0.6000000000000001 -1.2 0  -0.5 -1.2 0  -0.3999999999999999 -1.2 0  -0.3 -1.2 0  -0.2 -1.2 0  -0.1000000000000001 -1.2 0  0 -1.2 0  0.1000000000000001 -1.2 0  0.2000000000000002 -1.2 0  0.2999999999999998 -1.2 0  0.3999999999999999 -1.2 0  0.5 -1.2 0  0.6000000000000001 -1.2 0  0.7000000000000002 -1.2 0  0.7999999999999998 -1.2 0  0.8999999999999999 -1.2 0  1 -1.2 0  1.1 -1.2 0  1.2 -1.2 0  1.3 -1.2 0  1.4 -1.2 0  1.5 -1.2 0  1.6 -1.2 0  1.7 -1.2 0  1.8 -1.2 0  1.9 -1.2 0  2 -1.2 0  -2 -1.1 0  -1.9 -1.1 0  -1.8 -1.1 0  -1.7 -1.1 0  -1.6 -1.1 0  -1.5 -1.1 0  -1.4 -1.1 0  -1.3 -1.1 0  -1.2 -1.1 0  -1.1 -1.1 0  -1 -1.1 0  -0.8999999999999999 -1.1 0  -0.8 -1.1 0  -0.7 -1.1 0  -0.6000000000000001 -1.1 0  -0.5 -1.1 0  -0.3999999999999999 -1.1 0  -0.3 -1.1 0  -0.2 -1.1 0  -0.1000000000000001 -1.1 0  0 -1.1 0  0.1000000000000001 -1.1 0  0.2000000000000002 -1.1 0  0.2999999999999998 -1.1 0  0.3999999999999999 -1.1 0  0.5 -1.1 0  0.6000000000000001 -1.1 0  0.7000000000000002 -1.1 0  0.7999999999999998 -1.1 0  0.8999999999999999 -1.1 0  1 -1.1 0  1.1 -1.1 0  1.2 -1.1 0  1.3 -1.1 0  1.4 -1.1 0  1.5 -1.1 0  1.6 -1.1 0  1.7 -1.1 0  1.8 -1.1 0  1.9 -1.1 0  2 -1.1 0  -2 -1 0  -1.9 -1 0  -1.8 -1 0  -1.7 -1 0  -1.6 -1 0  -1.5 -1 0  -1.4 -1 0  -1.3 -1 0  -1.2 -1 0  -1.1 -1 0  -1 -1 0  -0.8999999999999999 -1 0  -0.8 -1 0  -0.7 -1 0  -0.6000000000000001 -1 0  -0.5 -1 0  -0.3999999999999999 -1 0  -0.3 -1 0  -0.2 -1 0  -0.1000000000000001 -1 0  0 -1 0  0.1000000000000001 -1 0  0.2000000000000002 -1 0  0.2999999999999998 -1 0  0.3999999999999999 -1 0  0.5 -1 0  0.6000000000000001 -1 0  0.7000000000000002 -1 0  0.7999999999999998 -1 0  0.8999999999999999 -1 0  1 -1 0  1.1 -1 0  1.2 -1 0  1.3 -1 0  1.4 -1 0  1.5 -1 0  1.6 -1 0  1.7 -1 0  1.8 -1 0  1.9 -1 0  2 -1 0  -2 -0.8999999999999999 0  -1.9 -0.8999999999999999 0  -1.8 -0.8999999999999999 0  -1.7 -0.8999999999999999 0  -1.6 -0.8999999999999999 0  -1.5 -0.8999999999999999 0  -1.4 -0.8999999999999999 0  -1.3 -0.8999999999999999 0  -1.2 -0.8999999999999999 0  -1.1 -0.8999999999999999 0  -1 -0.8999999999999999 0  -0.8999999999999999 -0.8999999999999999 0  -0.8 -0.8999999999999999 0  -0.7 -0.8999999999999999 0  -0.6000000000000001 -0.8999999999999999 0  -0.5 -0.8999999999999999 0  -0.3999999999999999 -0.8999999999999999 0  -0.3 -0.8999999999999999 0  -0.2 -0.8999999999999999 0  -0.1000000000000001 -0.8999999999999999 0  0 -0.8999999999999999 0  0.1000000000000001 -0.8999999999999999 0  0.2000000000000002 -0.8999999999999999 0  0.2999999999999998 -0.8999999999999999 0  0.3999999999999999 -0.8999999999999999 0  0.5 -0.8999999999999999 0  0.6000000000000001 -0.8999999999999999 0  0.7000000000000002 -0.8999999999999999 0  0.7999999999999998 -0.8999999999999999 0  0.8999999999999999 -0.8999999999999999 0  1 -0.8999999999999999 0  1.1 -0.8999999999999999 0  1.2 -0.8999999999999999 0  1.3 -0.8999999999999999 0  1.4 -0.8999999999999999 0  1.5 -0.8999999999999999 0  1.6 -0.8999999999999999 0  1.7 -0.8999999999999999 0  1.8 -0.8999999999999999 0  1.9 -0.8999999999999999 0  2 -0.8999999999999999 0  -2 -0.8 0  -1.9 -0.8 0  -1.8 -0.8 0  -1.7 -0.8 0  -1.6 -0.8 0  -1.5 -0.8 0  -1.4 -0.8 0  -1.3 -0.8 0  -1.2 -0.8 0  -1.1 -0.8 0  -1 -0.8 0  -0.8999999999999999 -0.8 0  -0.8 -0.8 0  -0.7 -0.8 0  -0.6000000000000001 -0.8 0  -0.5 -0.8 0  -0.3999999999999999 -0.8 0  -0.3 -0.8 0  -0.2 -0.8 0  -0.1000000000000001 -0.8 0  0 -0.8 0  0.1000000000000001 -0.8 0  0.2000000000000002 -0.8 0  0.2999999999999998 -0.8 0  0.3999999999999999 -0.8 0  0.5 -0.8 0  0.6000000000000001 -0.8 0  0.7000000000000002 -0.8 0  0.7999999999999998 -0.8 0  0.8999999999999999 -0.8 0  1 -0.8 0  1.1 -0.8 0  1.2 -0.8 0  1.3 -0.8 0  1.4 -0.8 0  1.5 -0.8 0  1.6 -0.8 0  1.7 -0.8 0  1.8 -0.8 0  1.9 -0.8 0  2 -0.8 0  -2 -0.7 0  -1.9 -0.7 0  -1.8 -0.7 0  -1.7 -0.7 0  -1.6 -0.7 0  -1.5 -0.7 0  -1.4 -0.7 0  -1.3 -0.7 0  -1.2 -0.7 0  -1.1 -0.7 0  -1 -0.7 0  -0.8999999999999999 -0.7 0  -0.8 -0.7 0  -0.7 -0.7 0  -0.6000000000000001 -0.7 0  -0.5 -0.7 0  -0.3999999999999999 -0.7 0  -0.3 -0.7 0  -0.2 -0.7 0  -0.1000000000000001 -0.7 0  0 -0.7 0  0.1000000000000001 -0.7 0  0.2000000000000002 -0.7 0  0.2999999999999998 -0.7 0  0.3999999999999999 -0.7 0  0.5 -0.7 0  0.600000000000000
[...]
<PointData  Scalars="f_1726"> 
<DataArray  type="Float64"  Name="f_1726"  format="ascii">0.0000000000000000e+00  0.0000000000000000e+00  0.0000000000000000e+00  0.0000000000000000e+00  0.0000000000000000e+00  0.0000000000000000e+00  0.0000000000000000e+00  0.0000000000000000e+00  0.0000000000000000e+00  0.0000000000000000e+00  0.0000000000000000e+00  0.0000000000000000e+00  0.0000000000000000e+00  0.0000000000000000e+00  0.0000000000000000e+00  0.0000000000000000e+00  0.0000000000000000e+00  0.0000000000000000e+00  0.0000000000000000e+00  0.0000000000000000e+00  0.0000000000000000e+00  0.0000000000000000e+00  0.0000000000000000e+00  0.0000000000000000e+00  0.0000000000000000e+00  0.0000000000000000e+00  0.0000000000000000e+00  0.0000000000000000e+00  0.0000000000000000e+00  0.0000000000000000e+00  0.0000000000000000e+00  0.0000000000000000e+00  0.0000000000000000e+00  0.0000000000000000e+00  0.0000000000000000e+00  0.0000000000000000e+00  0.0000000000000000e+00  0.0000000000000000e+00  0.0000000000000000e+00  0.0000000000000000e+00  0.0000000000000000e+00  0.0000000000000000e+00  -1.8100607508953443e-12  -2.1093709900633738e-12  1.3861276772675056e-11  -3.3401746903941654e-12  -7.0202525306881969e-11  3.7823070134214675e-11  3.4541647390076594e-10  4.7523308161503309e-11  -1.4337610637814593e-09  -2.8608788150542680e-09  -2.5217325971481461e-09  -8.6916919036682474e-10  2.3522859857553651e-10  2.3831115337161458e-10  -2.2620112692415473e-11  -4.5676917227878444e-11  7.6526390111080604e-12  7.0303033624088001e-12  -2.7338108426325649e-12  -4.9945865503468781e-13  5.9520519257995181e-13  -1.1676111639851544e-13  -5.0904308609031167e-14  3.8024791612148383e-14  -8.3478199632627603e-15  -1.8965538361240859e-15  2.0948784764773579e-15  -7.5146156804425092e-16  8.8198789221646110e-17  5.6463128763981365e-17  -4.2083160544741287e-17  1.5770814984815620e-17  -3.4876537268119770e-18  2.8875970428616066e-20  4.0892424754750969e-19  -2.4598354982283063e-19  1.0008315410917327e-19  -3.3176599009657789e-20  1.0516765045545111e-20  0.0000000000000000e+00  0.0000000000000000e+00  -2.1093709900633742e-12  1.5169751516202478e-11  -1.3494988052654864e-11  -6.6454816127652491e-11  1.3955405182721591e-10  2.6082361602521293e-10  -7.5143362690191826e-10  -1.4678441891246740e-09  2.1886604696868054e-09  9.3805718964323144e-09  1.2246252459694515e-08  7.1722851739014685e-09  5.8010770497597856e-10  -1.3903712012236303e-09  -3.1603442475398864e-10  2.5813327262952740e-10  4.3671908454843237e-11  -5.1708686499673699e-11  2.3607060033203269e-12  8.1061181675377007e-12  -2.7318001731482361e-12  -3.9507643234531272e-13  5.6983031428207509e-13  -1.6482680112356536e-13  -1.5355162861364935e-14  3.0938775507948545e-14  -1.2338349523448799e-14  1.7161177037471792e-15  8.1672567606802345e-16  -6.5785200972059529e-16  2.4782994157681318e-16  -5.2913026232024785e-17  -9.8806241860090214e-19  6.9771611275452875e-18  -3.9581996378555191e-18  1.5474316057414770e-18  -4.8932651226048990e-19  1.3292315811204860e-19  -3.3176599009657831e-20  0.0000000000000000e+00  0.0000000000000000e+00  1.3861276772675066e-11  -1.3494988052654872e-11  -6.0756361985390296e-11  1.7993344320175134e-10  9.9269435611217145e-11  -1.0674632613880045e-09  6.6236168571216661e-11  5.3324576192141703e-09  2.0250984264864910e-09  -2.1691068500557006e-08  -4.6161815587741171e-08  -4.0919415857157255e-08  -1.3279294530760798e-08  4.3631974366360402e-09  3.5542287387903176e-09  -6.3157005045589164e-10  -6.3603431633686296e-10  1.8770321594426230e-10  7.5261372615005190e-11  -4.9535067739758724e-11  2.0178196049845627e-12  7.2037311779276987e-12  -2.9545876232097724e-12  8.7832903321269123e-14  3.9972147052174694e-13  -1.9381225109517632e-13  3.5702761651248560e-14  9.0682955803916697e-15  -9.4888726834277444e-15  3.8452363846820804e-15  -8.7941196688977622e-16  1.0109987271446014e-17  1.0136988011269294e-16  -6.0111843425937486e-17  2.3865780252841176e-17  -7.6200125034180299e-18  2.0649108625708185e-18  -4.8932651226048778e-19  1.0008315410917297e-19  0.0000000000000000e+00  0.0000000000000000e+00  -3.3401746903941335e-12  -6.6454816127652556e-11  1.7993344320175152e-10  3.3768580845139445e-11  -1.0933497175350776e-09  1.2450115895642943e-09  4.7721205223885995e-09  -8.7032997833945178e-09  -2.4045791906551235e-08  2.6143511867688387e-08  1.3891493314894221e-07  1.8723555928714945e-07  1.0726284027383551e-07  4.9488696828132614e-09  -2.1301305726119141e-08  -3.0123672984209573e-09  4.0222015487818832e-09  1.2105031930873394e-10  -7.1572721844831577e-10  1.4905149940911848e-10  7.3390203061256911e-11  -4.7932428486532504e-11  6.4313101132205838e-12  4.6132293129000664e-12  -2.9440979509240613e-12  6.9200088924302362e-13  7.7873159547596588e-14  -1.3380680568767194e-13  5.9540875617072425e-14  -1.4717216141637056e-14  6.2147986730254024e-16  1.4569367516781384e-15  -9.1690525318702213e-16  3.7138767654965343e-16  -1.1961993891611194e-16  3.2534958373889809e-17  -7.6200125034180669e-18  1.5474316057414795e-18  -2.4598354982283164e-19  0.0000000000000000e+00  0.0000000000000000e+00  -7.0202525306882073e-11  1.3955405182721586e-10  9.9269435611217378e-11  -1.0933497175350789e-09  1.6261202194197888e-09  3.5973220974356909e-09  -1.3741111115418866e-08  -7.6387460891726441e-09  7.4130519564300661e-08  5.1039833676050607e-08  -3.0191476028208716e-07  -6.9781174279742810e-07  -6.2194302357475847e-07  -1.8578241415722552e-07  7.5586163779630613e-08  4.7356205551484219e-08  -1.3680706256434415e-08  -7.2924876027622199e-09  3.5795671169572714e-09  3.8536496191800247e-10  -6.9014464142625909e-10  1.6978454337659463e-10  4.2223148635464218e-11  -4.2634230054301051e-11  1.2609033667284151e-11  1.6548077658345912e-13  -1.8270473347775132e-12  9.1338448954767133e-13  -2.4487592652664622e-13  1.7343702051326740e-14  2.0647480367474241e-14  -1.3961248512880400e-14  5.7821260407682179e-15  -1.8791155764023088e-15  5.1221757297686742e-16  -1.1961993891611177e-16  2.3865780252841231e-17  -3.9581996378555129e-18  4.0892424754750969e-19  0.0000000000000000e+00  0.0000000000000000e+00  3.7823070134214727e-11  2.6082361602521335e-10  -1.0674632613880049e-09  1.2450115895642943e-09  3.5973220974356958e-09  -1.4843330740701439e-08  4.0196492269507682e-09  7.8242753051924746e-08  -8.4053990322541633e-08  -3.8221774614717665e-07  2.7802473055647799e-07  2.0445120991121641e-06  2.8630397544651193e-06  1.5949485603396032e-06  7.7911812479143393e-09  -3.2015794892272471e-07  -1.5091759311953440e-08  5.8613954207815632e-08  -6.5670268458948760e-09  -8.2638206710554444e-09  3.4258799467419921e-09  1.4184664067467682e-10  -5.7508454634144565e-10  2.1778459405624477e-10  -1.4422927682634460e-11  -2.3739813692741283e-11  1.3829207275095162e-11  -4.0468385301553213e-12  3.9720530365338736e-13  2.8659733628737270e-13  -2.1190645593815892e-13  9.0020083149132471e-14  -2.9548066488256021e-14  8.0726276346242987e-15  -1.8791155764023088e-15  3.7138767654965294e-16  -6.0111843425937671e-17  6.9771611275452906e-18  2.8875970428611372e-20  0.0000000000000000e+00  0.0000000000000000e+00  3.4541647390076635e-10  -7.5143362690191940e-10  6.6236168571216118e-11  4.7721205223886036e-09  -1.3741111115418871e-08  4.0196492269507392e-09  7.4438139544363467e-08  -1.4857113258433718e-07  -2.3594764438633373e-07  9.7386752124289361e-07  1.0827303345581290e-06  -4.1223678141054980e-06  -1.0581757666559472e-05  -9.4866787247671430e-06  -2.5415608685886225e-06  1.2935489555103382e-06  5.9018403811959755e-07  -2.6050519559613536e-07  -6.4263918219354249e-08  5.7506882938306546e-08  -6.1135525811373867e-09  -6.8738491206229336e-09  3.5597143020376503e-09  -4.9298874460885644e-10  -2.8368832903306302e-10  2.0562602702423094e-10  -6.6363227639184082e-11  8.2973900807865643e-12  3.8596276047178157e-12  -3.2031561176999264e-12  1.4013983893432920e-12  -4.6517958218264584e-13  1.2740710328811806e-13  -2.9548066488256078e-14  5.7821260407682289e-15  -9.1690525318702351e-16  1.0136988011269353e-16  -9.8806241860097474e-19  -3.4876537268119608e-18  0.0000000000000000e+00  0.0000000000000000e+00  4.7523308161504499e-11  -1.4678441891246765e-09  5.3324576192141769e-09  -8.7032997833945244e-09  -7.6387460891726722e-09  7.8242753051924826e-08  -1.4857113258433708e-07  -1.6028820555747287e-07  1.1414839908162850e-06  -4.6048776688529354e-07  -5.8799701015091061e-06  2.2438403925522024e-06  3.0005220886895978e-05  4.4034407140817952e-05  2.3664577990080526e-05  -1.0554582645867345e-06  -4.6971275363120506e-06  2.7703190526929794e-07  7.7366455636426468e-07  -2.1249501506009267e-07  -6.2972879400850390e-08  5.4325309134948278e-08  -1.1713841300157210e-08  -2.8612073687665525e-09  2.9785505610021953e-09  -1.0780739886367877e-09  1.6430104052606487e-10  4.9590711885555256e-11  -4.8158299690814601e-11  2.1812772200634639e-11  -7.3334735283834723e-12  2.0141487346097574e-12  -4.6517958218264392e-13  9.0020083149132181e-14  -1.3961248512880351e-14  1.4569367516781305e-15  1.0109987271446824e-17  -5.2913026232024643e-17  1.5770814984815567e-17  0.0000000000000000e+00  0.0000000000000000e+00  -1.4337610637814584e-09  2.1886604696867996e-09  2.0250984264865059e-09  -2.4045791906551271e-08  7.4130519564300754e-08  -8.4053990322541633e-08  -2.3594764438633424e-07  1.1414839908162854e-06  -1.0197252665026053e-06  -5.0171554743795716e-06  1.1572453619638943e-05  2.1006169017524838e-05  -5.4593813966119635e-05  -1.6117917963736855e-04  -1.4542263633464213e-04  -3.3504847697336320e-05  2.1847498287275200e-05  6.4433932796243919e-06  -4.4772616493257549e-06  -1.3164287233734124e-07  7.4727439344967422e-07  -2.3761426190019209e-07  -1.6757752554578445e-08  4.1444476269353423e-08  -1.7298836087208172e-08  3.1404109117106344e-09  5.8727925543498063e-10  -7.1880816355697475e-10  3.3940506256129486e-10  -1.1579672499763722e-10  3.1903111231897190e-11  -7.3334735283835062e-12  1.4013983893432950e-12  -2.1190645593815998e-13  2.0647480367474443e-14  6.2147986730249636e-16  -8.7941196688977149e-16  2.4782994157681165e-16  -4.2083160544741115e-17  0.0000000000000000e+00  0.0000000000000000e+00  -2.8608788150542663e-09  9.3805718964323078e-09  -2.1691068500556980e-08  2.6143511867688311e-08  5.1039833676050826e-08  -3.8221774614717734e-07  9.7386752124289488e-07  -4.6048776688529222e-07  -5.0171554743795733e-06  1.3919809514666175e-05  6.2718189144969716e-06  -8.6252364870754135e-05  5.4120399419928132e-07  4.3820808924668555e-04  6.8265209378965807e-04  3.4966846211550832e-04  -3.6901639911830357e-05  -6.6050816043658706e-05  1.2215001740437608e-05  8.4024051856380579e-06  -4.2941354049205675e-06  2.2375018315027132e-07  5.3883779304511849e-07  -2.7279340463162708e-07  5.8493511154629299e-08  5.8548437926858275e-09  -1.0621121923778851e-08  5.2780865364208662e-09  -1.8319257988709921e-09  5.0649862274224695e-10  -1.1579672499763706e-10  2.1812772200634684e-11  -3.2031561176999231e-12  2.8659733628737285e-13  1.7343702051326769e-14  -1.4717216141637037e-14  3.8452363846820883e-15  -6.5785200972059421e-16  5.6463128763981303e-17  0.0000000000000000e+00  0.0000000000000000e+00  -2.5217325971481428e-09  1.2246252459694507e-08  -4.6161815587741144e-08  1.3891493314894205e-07  -3.0191476028208679e-07  2.7802473055647688e-07  1.0827303345581326e-06  -5.8799701015091171e-06  1.1572453619638946e-05  6.2718189144969733e-06  -8.6603556037082111e-05  1.0957637175798325e-04  3.8301832261569772e-04  -6.8428716349676864e-04  -2.4698348382338224e-03  -2.2440921388452561e-03  -4.1165721512744793e-04  3.6234919260301138e-04  4.8600726620010392e-05  -6.8080006420386614e-05  1.1536601381711544e-05  6.1290213408201558e-06  -4.1886516973625130e-06  1.0667460597205569e-06  3.1897203916168133e-08  -1.5465477731600292e-07  8.1999909934209466e-08  -2.9047660671372714e-08  8.0637622025214092e-09  -1.8319257988709930e-09  3.3940506256129475e-10  -4.8158299690814788e-11  3.8596276047178327e-12  3.9720530365338256e-13  -2.4487592652664516e-13  5.9540875617072109e-14  -9.4888726834277192e-15  8.1672567606801467e-16  8.8198789221647170e-17  0.0000000000000000e+00  0.0000000000000000e+00  -8.6916919036682360e-10  7.1722851739014611e-09  -4.0919415857157222e-08  1.8723555928714932e-07  -6.9781174279742736e-07  2.0445120991121620e-06  -4.1223678141054921e-06  2.2438403925521871e-06  2.1006169017524906e-05  -8.6252364870754202e-05  1.0957637175798331e-04  2.9134846352766566e-04  -1.1633447533518156e-03  -5.7243085867380997e-04  6.3417043430999149e-03  1.0704083300233208e-02  5.1240998782255114e-03  -9.3961793884481755e-04  -8.5301193272456564e-04  2.9874628158665261e-04  4.8167203221536788e-05  -6.1470825896650975e-05  1.9066677047378278e-05  -5.8644556902683340e-07  -2.2018100154432712e-06  1.2718709818922420e-06  -4.6188052532993617e-07  1.2882367009381015e-07  -2.9047660671372760e-08  5.2780865364208778e-09  -7.1880816355697661e-10  4.9590711885555708e-11  8.2973900807864932e-12  -4.0468385301553116e-12  9.1338448954766971e-13  -1.3380680568767158e-13  9.0682955803916618e-15  1.7161177037471784e-15  -7.5146156804425013e-16  0.0000000000000000e+00  0.0000000000000000e+00  2.3522859857553687e-10  5.8010770497597587e-10  -1.3279294530760776e-08  1.0726284027383536e-07  -6.2194302357475815e-07  2.8630397544651172e-06  -1.0581757666559462e-05  3.0005220886895951e-05  -5.4593813966119574e-05  5.4120399419897501e-07  3.8301832261569831e-04  -1.1633447533518164e-03  3.4786161953980437e-04  6.5737898981560496e-03  -7.6155679222071277e-03  -3.8171805606959541e-02  -3.4957564240448380e-02  -4.2787857045330198e-03  5.8181071102939193e-03  -2.1097725859476376e-04  -8.2554303524768940e-04  3.3272577153527867e-04  -2.9241159844871514e-05  -3.0194614353100706e-05  1.9672809803408535e-05  -7.3700972127921507e-06  2.0670416418582350e-06  -4.6188052532993411e-07  8.1999909934209228e-08  -1.0621121923778808e-08  5.8727925543497484e-10  1.6430104052606562e-10  -6.6363227639183862e-11  1.3829207275095109e-11  -1.8270473347775007e-12  7.7873159547594619e-14  3.5702761651248882e-14  -1.2338349523448797e-14  2.0948784764773559e-15  0.0000000000000000e+00  0.0000000000000000e+00  2.3831115337161468e-10  -1.3903712012236311e-09  4.3631974366360452e-09  4.9488696828132466e-09  -1.8578241415722536e-07  1.5949485603396019e-06  -9.4866787247671362e-06  4.4034407140817925e-05  -1.6117917963736844e-04  4.3820808924668544e-04  -6.8428716349676702e-04  -5.7243085867381431e-04  6.5737898981560574e-03  -1.2916525156031495e-02  -1.8934286975511760e-02  9.0044586933560364e-02  1.7083947404248895e-01  7.3728616720365681e-02  -2.1277986768308752e-02  -8.8450587619177349e-03  5.5913287084508202e-03  -8.3482999774527045e-04  -3.8589645684499515e-04  3.0279638808424040e-04  -1.1813798190593966e-04  3.3356217954823952e-05  -7.3700972127921846e-06  1.2718709818922439e-06  -1.5465477731600379e-07  5.8548437926859929e-09  3.1404109117105967e-09  -1.0780739886367846e-09  2.0562602702422968e-10  -2.3739813692741140e-11  1.6548077658344289e-13  6.9200088924302352e-13  -1.9381225109517655e-13  3.0938775507948419e-14  -1.8965538361240721e-15  0.0000000000000000e+00  0.0000000000000000e+00  -2.2620112692415593e-11  -3.1603442475398843e-10  3.5542287387903193e-09  -2.1301305726119157e-08  7.5586163779630693e-08  7.7911812479137123e-09  -2.5415608685886204e-06  2.3664577990080509e-05  -1.4542263633464205e-04  6.8265209378965764e-04  -2.4698348382338224e-03  6.3417043430999097e-03  -7.6155679222071086e-03  -1.8934286975511812e-02  1.0268063666544291e-01  -5.7723290213165822e-02  -5.9778709262062801e-01  -5.5246346592213524e-01  -2.1296228666275712e-02  8.6576791416190360e-02  -2.0245128902162970e-02  -4.1799105609627791e-03  4.6172025831357688e-03  -1.9052894348648779e-03  5.4246019809916720e-04  -1.1813798190593953e-04  1.9672809803408569e-05  -2.2018100154432670e-06  3.1897203916167730e-08  5.8493511154629339e-08  -1.7298836087208145e-08  2.9785505610021999e-09  -2.8368832903306219e-10  -1.4422927682634499e-11  1.2609033667284152e-11  -2.9440979509240568e-12  3.9972147052174724e-13  -1.5355162861364840e-14  -8.3478199632627650e-15  0.0000000000000000e+00  0.0000000000000000e+00  -4.5676917227878483e-11  2.5813327262952787e-10  -6.3157005045589433e-10  -3.0123672984209457e-09  4.7356205551484193e-08  -3.2015794892272492e-07  1.2935489555103403e-06  -1.0554582645867456e-06  -3.3504847697336259e-05  3.4966846211550789e-04  -2.2440921388452544e-03  1.0704083300233206e-02  -3.8171805606959534e-02  9.0044586933560267e-02  -5.7723290213165412e-02  -4.6677327149044490e-01  1.2178809093767939e+00  2.8132348014392181e+00  1.0103932434344804e+00  -4.5092742197817864e-01  -2.2297553539497372e-02  6.9025311299699535e-02  -3.0995954408797884e-02  8.9205895245807500e-03  -1.9052894348648775e-03  3.0279638808424007e-04  -3.0194614353100814e-05  -5.8644556902681636e-07  1.0667460597205523e-06  -2.7279340463162586e-07  4.1444476269353145e-08  -2.8612073687665186e-09  -4.9298874460886182e-10  2.1778459405624549e-10  -4.2634230054301123e-11  4.6132293129000664e-12  8.7832903321269919e-14  -1.6482680112356528e-13  3.8024791612148402e-14  0.0000000000000000e+00  0.0000000000000000e+00  7.6526390111080831e-12  4.3671908454843166e-11  -6.3603431633686285e-10  4.0222015487818857e-09  -1.3680706256434443e-08  -1.5091759311953311e-08  5.9018403811959734e-07  -4.6971275363120523e-06  2.1847498287275220e-05  -3.6901639911830486e-05  -4.1165721512744706e-04  5.1240998782255080e-03  -3.4957564240448359e-02  1.7083947404248895e-01  -5.9778709262062790e-01  1.2178809093767919e+00  5.0326600367864749e-01  -9.5800901029493879e+00  -8.9520588586089787e+00  7.8157309268289910e-01  9.8041384439848078e-01  -5.1103437042776934e-01  1.4926277901691812e-01  -3.0995954408797932e-02  4.6172025831357783e-03  -3.8589645684499721e-04  -2.9241159844871223e-05  1.9066677047378190e-05  -4.1886516973625045e-06  5.3883779304511722e-07  -1.6757752554578332e-08  -1.1713841300157244e-08  3.5597143020376445e-09  -5.7508454634144493e-10  4.2223148635464037e-11  6.4313101132206145e-12  -2.9545876232097857e-12  5.6983031428207529e-13  -5.0904308609031274e-14  0.0000000000000000e+00  0.0000000000000000e+00  7.0303033624087968e-12  -5.1708686499673719e-11  1.8770321594426243e-10  1.2105031930873319e-10  -7.2924876027622199e-09  5.8613954207815679e-08  -2.6050519559613584e-07  2.7703190526930032e-07  6.4433932796243826e-06  -6.6050816043658733e-05  3.6234919260301176e-04  -9.3961793884482015e-04  -4.2787857045330059e-03  7.3728616720365625e-02  -5.5246346592213524e-01  2.8132348014392194e+00  -9.5800901029493879e+00  1.3609471164507941e+01  4.9677574802987088e+01  1.1340597908177246e+01  -8.6241052784827339e+00  2.5753828807335704e+00  -5.1103437042776734e-01  6.9025311299699299e-02  -4.1799105609627435e-03  -8.3482999774527197e-04  3.3272577153527916e-04  -6.1470825896650744e-05  6.1290213408201219e-06  2.2375018315027741e-07  -2.3761426190019265e-07  5.4325309134948509e-08  -6.8738491206229394e-09  1.4184664067467883e-10  1.6978454337659437e-10  -4.7932428486532361e-11  7.2037311779276987e-12  -3.9507643234530939e-13  -1.1676111639851564e-13  0.0000000000000000e+00  0.0000000000000000e+00  -2.7338108426325649e-12  2.3607060033203269e-12  7.5261372615005203e-11  -7.1572721844831597e-10  3.5795671169572726e-09  -6.5670268458948950e-09  -6.4263918219354209e-08  7.7366455636426489e-07  -4.4772616493257574e-06  1.2215001740437624e-05  4.8600726620010426e-05  -8.5301193272456662e-04  5.8181071102939245e-03  -2.1277986768308787e-02  -2.1296228666275504e-02  1.0103932434344802e+00  -8.9520588586089840e+00  4.9677574802987117e+01  -1.6158234984854053e+02  -1.5322985824590134e+02  4.7600570820416763e+01  -8.6241052784827712e+00  9.8041384439848367e-01  -2.2297553539498170e-02  -2.0245128902162814e-02  5.5913287084507837e-03  -8.2554303524768604e-04  4.8167203221535908e-05  1.1536601381711654e-05  -4.2941354049205793e-06  7.4727439344967507e-07  -6.2972879400850602e-08  -6.1135525811373793e-09  3.4258799467419950e-09  -6.901446414262596