<?xml version="1.0"?>
<VTKFile type="UnstructuredGrid"  version="0.1"  >
<UnstructuredGrid>
<Piece  NumberOfPoints="1681" NumberOfCells="3200">
<Points>
<DataArray  type="Float64"  NumberOfComponents="3"  format="ascii">-2 -2 0  -1.9 -2 0  -1.8 -2 0  -1.7 -2 0  -1.6 -2 0  -1.5 -2 0  -1.4 -2 0  -1.3 -2 0  -1.2 -2 0  -1.1 -2 0  -1 -2 0  -0.8999999999999999 -2 0  -0.8 -2 0  -0.7 -2 0  -0.6000000000000001 -2 0  -0.5 -2 0  -0.3999999999999999 -2 0  -0.3 -2 0  -0.2 -2 0  -0.1000000000000001 -2 0  0 -2 0  0.1000000000000001 -2 0  0.2000000000000002 -2 0  0.2999999999999998 -2 0  0.3999999999999999 -2 0  0.5 -2 0  0.6000000000000001 -2 0  0.7000000000000002 -2 0  0.7999999999999998 -2 0  0.8999999999999999 -2 0  1 -2 0  1.1 -2 0  1.2 -2 0  1.3 -2 0  1.4 -2 0  1.5 -2 0  1.6 -2 0  1.7 -2 0  1.8 -2 0  1.9 -2 0  2 -2 0  -2 -1.9 0  -1.9 -1.9 0  -1.8 -1.9 0  -1.7 -1.9 0  -1.6 -1.9 0  -1.5 -1.9 0  -1.4 -1.9 0  -1.3 -1.9 0  -1.2 -1.9 0  -1.1 -1.9 0  -1 -1.9 0  -0.8999999999999999 -1.9 0  -0.8 -1.9 0  -0.7 -1.9 0  -0.6000000000000001 -1.9 0  -0.5 -1.9 0  -0.3999999999999999 -1.9 0  -0.3 -1.9 0  -0.2 -1.9 0  -0.1000000000000001 -1.9 0  0 -1.9 0  0.1000000000000001 -1.9 0  0.2000000000000002 -1.9 0  0.2999999999999998 -1.9 0  0.3999999999999999 -1.9 0  0.5 -1.9 0  0.6000000000000001 -1.9 0  0.7000000000000002 -1.9 0  0.7999999999999998 -1.9 0  0.8999999999999999 -1.9 0  1 -1.9 0  1.1 -1.9 0  1.2 -1.9 0  1.3 -1.9 0  1.4 -1.9 0  1.5 -1.9 0  1.6 -1.9 0  1.7 -1.9 0  1.8 -1.9 0  1.9 -1.9 0  2 -1.9 0  -2 -1.8 0  -1.9 -1.8 0  -1.8 -1.8 0  -1.7 -1.8 0  -1.6 -1.8 0  -1.5 -1.8 0  -1.4 -1.8 0  -1.3 -1.8 0  -1.2 -1.8 0  -1.1 -1.8 0  -1 -1.8 0  -0.8999999999999999 -1.8 0  -0.8 -1.8 0  -0.7 -1.8 0  -0.6000000000000001 -1.8 0  -0.5 -1.8 0  -0.3999999999999999 -1.8 0  -0.3 -1.8 0  -0.2 -1.8 0  -0.1000000000000001 -1.8 0  0 -1.8 0  0.1000000000000001 -1.8 0  0.2000000000000002 -1.8 0  0.2999999999999998 -1.8 0  0.3999999999999999 -1.8 0  0.5 -1.8 0  0.6000000000000001 -1.8 0  0.7000000000000002 -1.8 0  0.7999999999999998 -1.8 0  0.8999999999999999 -1.8 0  1 -1.8 0  1.1 -1.8 0  1.2 -1.8 0  1.3 -1.8 0  1.4 -1.8 0  1.5 -1.8 0  1.6 -1.8 0  1.7 -1.8 0  1.8 -1.8 0  1.9 -1.8 0  2 -1.8 0  -2 -1.7 0  -1.9 -1.7 0  -1.8 -1.7 0  -1.7 -1.7 0  -1.6 -1.7 0  -1.5 -1.7 0  -1.4 -1.7 0  -1.3 -1.7 0  -1.2 -1.7 0  -1.1 -1.7 0  -1 -1.7 0  -0.8999999999999999 -1.7 0  -0.8 -1.7 0  -0.7 -1.7 0  -0.6000000000000001 -1.7 0  -0.5 -1.7 0  -0.3999999999999999 -1.7 0  -0.3 -1.7 0  -0.2 -1.7 0  -0.1000000000000001 -1.7 0  0 -1.7 0  0.1000000000000001 -1.7 0  0.2000000000000002 -1.7 0  0.2999999999999998 -1.7 0  0.3999999999999999 -1.7 0  0.5 -1.7 0  0.6000000000000001 -1.7 0  0.7000000000000002 -1.7 0  0.7999999999999998 -1.7 0  0.8999999999999999 -1.7 0  1 -1.7 0  1.1 -1.7 0  1.2 -1.7 0  1.3 -1.7 0  1.4 -1.7 0  1.5 -1.7 0  1.6 -1.7 0  1.7 -1.7 0  1.8 -1.7 0  1.9 -1.7 0  2 -1.7 0  -2 -1.6 0  -1.9 -1.6 0  -1.8 -1.6 0  -1.7 -1.6 0  -1.6 -1.6 0  -1.5 -1.6 0  -1.4 -1.6 0  -1.3 -1.6 0  -1.2 -1.6 0  -1.1 -1.6 0  -1 -1.6 0  -0.8999999999999999 -1.6 0  -0.8 -1.6 0  -0.7 -1.6 0  -0.6000000000000001 -1.6 0  -0.5 -1.6 0  -0.3999999999999999 -1.6 0  -0.3 -1.6 0  -0.2 -1.6 0  -0.1000000000000001 -1.6 0  0 -1.6 0  0.1000000000000001 -1.6 0  0.2000000000000002 -1.6 0  0.2999999999999998 -1.6 0  0.3999999999999999 -1.6 0  0.5 -1.6 0  0.6000000000000001 -1.6 0  0.7000000000000002 -1.6 0  0.7999999999999998 -1.6 0  0.8999999999999999 -1.6 0  1 -1.6 0  1.1 -1.6 0  1.2 -1.6 0  1.3 -1.6 0  1.4 -1.6 0  1.5 -1.6 0  1.6 -1.6 0  1.7 -1.6 0  1.8 -1.6 0  1.9 -1.6 0  2 -1.6 0  -2 -1.5 0  -1.9 -1.5 0  -1.8 -1.5 0  -1.7 -1.5 0  -1.6 -1.5 0  -1.5 -1.5 0  -1.4 -1.5 0  -1.3 -1.5 0  -1.2 -1.5 0  -1.1 -1.5 0  -1 -1.5 0  -0.8999999999999999 -1.5 0  -0.8 -1.5 0  -0.7 -1.5 0  -0.6000000000000001 -1.5 0  -0.5 -1.5 0  -0.3999999999999999 -1.5 0  -0.3 -1.5 0  -0.2 -1.5 0  -0.1000000000000001 -1.5 0  0 -1.5 0  0.1000000000000001 -1.5 0  0.2000000000000002 -1.5 0  0.2999999999999998 -1.5 0  0.3999999999999999 -1.5 0  0.5 -1.5 0  0.6000000000000001 -1.5 0  0.7000000000000002 -1.5 0  0.7999999999999998 -1.5 0  0.8999999999999999 -1.5 0  1 -1.5 0  1.1 -1.5 0  1.2 -1.5 0  1.3 -1.5 0  1.4 -1.5 0  1.5 -1.5 0  1.6 -1.5 0  1.7 -1.5 0  1.8 -1.5 0  1.9 -1.5 0  2 -1.5 0  -2 -1.4 0  -1.9 -1.4 0  -1.8 -1.4 0  -1.7 -1.4 0  -1.6 -1.4 0  -1.5 -1.4 0  -1.4 -1.4 0  -1.3 -1.4 0  -1.2 -1.4 0  -1.1 -1.4 0  -1 -1.4 0  -0.8999999999999999 -1.4 0  -0.8 -1.4 0  -0.7 -1.4 0  -0.6000000000000001 -1.4 0  -0.5 -1.4 0  -0.3999999999999999 -1.4 0  -0.3 -1.4 0  -0.2 -1.4 0  -0.1000000000000001 -1.4 0  0 -1.4 0  0.1000000000000001 -1.4 0  0.2000000000000002 -1.4 0  0.2999999999999998 -1.4 0  0.3999999999999999 -1.4 0  0.5 -1.4 0  0.6000000000000001 -1.4 0  0.7000000000000002 -1.4 0  0.7999999999999998 -1.4 0  0.8999999999999999 -1.4 0  1 -1.4 0  1.1 -1.4 0  1.2 -1.4 0  1.3 -1.4 0  1.4 -1.4 0  1.5 -1.4 0  1.6 -1.4 0  1.7 -1.4 0  1.8 -1.4 0  1.9 -1.4 0  2 -1.4 0  -2 -1.3 0  -1.9 -1.3 0  -1.8 -1.3 0  -1.7 -1.3 0  -1.6 -1.3 0  -1.5 -1.3 0  -1.4 -1.3 0  -1.3 -1.3 0  -1.2 -1.3 0  -1.1 -1.3 0  -1 -1.3 0  -0.8999999999999999 -1.3 0  -0.8 -1.3 0  -0.7 -1.3 0  -0.6000000000000001 -1.3 0  -0.5 -1.3 0  -0.3999999999999999 -1.3 0  -0.3 -1.3 0  -0.2 -1.3 0  -0.1000000000000001 -1.3 0  0 -1.3 0  0.1000000000000001 -1.3 0  0.2000000000000002 -1.3 0  0.2999999999999998 -1.3 0  0.3999999999999999 -1.3 0  0.5 -1.3 0  0.6000000000000001 -1.3 0  0.7000000000000002 -1.3 0  0.7999999999999998 -1.3 0  0.8999999999999999 -1.3 0  1 -1.3 0  1.1 -1.3 0  1.2 -1.3 0  1.3 -1.3 0  1.4 -1.3 0  1.5 -1.3 0  1.6 -1.3 0  1.7 -1.3 0  1.8 -1.3 0  1.9 -1.3 0  2 -1.3 0  -2 -1.2 0  -1.9 -1.2 0  -1.8 -1.2 0  -1.7 -1.2 0  -1.6 -1.2 0  -1.5 -1.2 0  -1.4 -1.2 0  -1.3 -1.2 0  -1.2 -1.2 0  -1.1 -1.2 0  -1 -1.2 0  -0.8999999999999999 -1.2 0  -0.8 -1.2 0  -0.7 -1.2 0  -0.6000000000000001 -1.2 0  -0.5 -1.2 0  -0.3999999999999999 -1.2 0  -0.3 -1.2 0  -0.2 -1.2 0  -0.1000000000000001 -1.2 0  0 -1.2 0  0.1000000000000001 -1.2 0  0.2000000000000002 -1.2 0  0.2999999999999998 -1.2 0  0.3999999999999999 -1.2 0  0.5 -1.2 0  0.6000000000000001 -1.2 0  0.7000000000000002 -1.2 0  0.7999999999999998 -1.2 0  0.8999999999999999 -1.2 0  1 -1.2 0  1.1 -1.2 0  1.2 -1.2 0  1.3 -1.2 0  1.4 -1.2 0  1.5 -1.2 0  1.6 -1.2 0  1.7 -1.2 0  1.8 -1.2 0  1.9 -1.2 0  2 -1.2 0  -2 -1.1 0  -1.9 -1.1 0  -1.8 -1.1 0  -1.7 -1.1 0  -1.6 -1.1 0  -1.5 -1.1 0  -1.4 -1.1 0  -1.3 -1.1 0  -1.2 -1.1 0  -1.1 -1.1 0  -1 -1.1 0  -0.8999999999999999 -1.1 0  -0.8 -1.1 0  -0.7 -1.1 0  -0.6000000000000001 -1.1 0  -0.5 -1.1 0  -0.3999999999999999 -1.1 0  -0.3 -1.1 0  -0.2 -1.1 0  -0.1000000000000001 -1.1 0  0 -1.1 0  0.1000000000000001 -1.1 0  0.2000000000000002 -1.1 0  0.2999999999999998 -1.1 0  0.3999999999999999 -1.1 0  0.5 -1.1 0  0.6000000000000001 -1.1 0  0.7000000000000002 -1.1 0  0.7999999999999998 -1.1 0  0.8999999999999999 -1.1 0  1 -1.1 0  1.1 -1.1 0  1.2 -1.1 0  1.3 -1.1 0  1.4 -1.1 0  1.5 -1.1 0  1.6 -1.1 0  1.7 -1.1 0  1.8 -1.1 0  1.9 -1.1 0  2 -1.1 0  -2 -1 0  -1.9 -1 0  -1.8 -1 0  -1.7 -1 0  -1.6 -1 0  -1.5 -1 0  -1.4 -1 0  -1.3 -1 0  -1.2 -1 0  -1.1 -1 0  -1 -1 0  -0.8999999999999999 -1 0  -0.8 -1 0  -0.7 -1 0  -0.6000000000000001 -1 0  -0.5 -1 0  -0.3999999999999999 -1 0  -0.3 -1 0  -0.2 -1 0  -0.1000000000000001 -1 0  0 -1 0  0.1000000000000001 -1 0  0.2000000000000002 -1 0  0.2999999999999998 -1 0  0.3999999999999999 -1 0  0.5 -1 0  0.6000000000000001 -1 0  0.7000000000000002 -1 0  0.7999999999999998 -1 0  0.8999999999999999 -1 0  1 -1 0  1.1 -1 0  1.2 -1 0  1.3 -1 0  1.4 -1 0  1.5 -1 0  1.6 -1 0  1.7 -1 0  1.8 -1 0  1.9 -1 0  2 -1 0  -2 -0.8999999999999999 0  -1.9 -0.8999999999999999 0  -1.8 -0.8999999999999999 0  -1.7 -0.8999999999999999 0  -1.6 -0.8999999999999999 0  -1.5 -0.8999999999999999 0  -1.4 -0.8999999999999999 0  -1.3 -0.8999999999999999 0  -1.2 -0.8999999999999999 0  -1.1 -0.8999999999999999 0  -1 -0.8999999999999999 0  -0.8999999999999999 -0.8999999999999999 0  -0.8 -0.8999999999999999 0  -0.7 -0.8999999999999999 0  -0.6000000000000001 -0.8999999999999999 0  -0.5 -0.8999999999999999 0  -0.3999999999999999 -0.8999999999999999 0  -0.3 -0.8999999999999999 0  -0.2 -0.8999999999999999 0  -0.1000000000000001 -0.8999999999999999 0  0 -0.8999999999999999 0  0.1000000000000001 -0.8999999999999999 0  0.2000000000000002 -0.8999999999999999 0  0.2999999999999998 -0.8999999999999999 0  0.3999999999999999 -0.8999999999999999 0  0.5 -0.8999999999999999 0  0.6000000000000001 -0.8999999999999999 0  0.7000000000000002 -0.8999999999999999 0  0.7999999999999998 -0.8999999999999999 0  0.8999999999999999 -0.8999999999999999 0  1 -0.8999999999999999 0  1.1 -0.8999999999999999 0  1.2 -0.8999999999999999 0  1.3 -0.8999999999999999 0  1.4 -0.8999999999999999 0  1.5 -0.8999999999999999 0  1.6 -0.8999999999999999 0  1.7 -0.8999999999999999 0  1.8 -0.8999999999999999 0  1.9 -0.8999999999999999 0  2 -0.8999999999999999 0  -2 -0.8 0  -1.9 -0.8 0  -1.8 -0.8 0  -1.7 -0.8 0  -1.6 -0.8 0  -1.5 -0.8 0  -1.4 -0.8 0  -1.3 -0.8 0  -1.2 -0.8 0  -1.1 -0.8 0  -1 -0.8 0  -0.8999999999999999 -0.8 0  -0.8 -0.8 0  -0.7 -0.8 0  -0.6000000000000001 -0.8 0  -0.5 -0.8 0  -0.3999999999999999 -0.8 0  -0.3 -0.8 0  -0.2 -0.8 0  -0.1000000000000001 -0.8 0  0 -0.8 0  0.1000000000000001 -0.8 0  0.2000000000000002 -0.8 0  0.2999999999999998 -0.8 0  0.3999999999999999 -0.8 0  0.5 -0.8 0  0.6000000000000001 -0.8 0  0.7000000000000002 -0.8 0  0.7999999999999998 -0.8 0  0.8999999999999999 -0.8 0  1 -0.8 0  1.1 -0.8 0  1.2 -0.8 0  1.3 -0.8 0  1.4 -0.8 0  1.5 -0.8 0  1.6 -0.8 0  1.7 -0.8 0  1.8 -0.8 0  1.9 -0.8 0  2 -0.8 0  -2 -0.7 0  -1.9 -0.7 0  -1.8 -0.7 0  -1.7 -0.7 0  -1.6 -0.7 0  -1.5 -0.7 0  -1.4 -0.7 0  -1.3 -0.7 0  -1.2 -0.7 0  -1.1 -0.7 0  -1 -0.7 0  -0.8999999999999999 -0.7 0  -0.8 -0.7 0  -0.7 -0.7 0  -0.6000000000000001 -0.7 0  -0.5 -0.7 0  -0.3999999999999999 -0.7 0  -0.3 -0.7 0  -0.2 -0.7 0  -0.1000000000000001 -0.7 0  0 -0.7 0  0.1000000000000001 -0.7 0  0.2000000000000002 -0.7 0  0.2999999999999998 -0.7 0  0.3999999999999999 -0.7 0  0.5 -0.7 0  0.600000000000000
[...]
<PointData  Scalars="f_1726"> 
<DataArray  type="Float64"  Name="f_1726"  format="ascii">0.0000000000000000e+00  0.0000000000000000e+00  0.0000000000000000e+00  0.0000000000000000e+00  0.0000000000000000e+00  0.0000000000000000e+00  0.0000000000000000e+00  0.0000000000000000e+00  0.0000000000000000e+00  0.0000000000000000e+00  0.0000000000000000e+00  0.0000000000000000e+00  0.0000000000000000e+00  0.0000000000000000e+00  0.0000000000000000e+00  0.0000000000000000e+00  0.0000000000000000e+00  0.0000000000000000e+00  0.0000000000000000e+00  0.0000000000000000e+00  0.0000000000000000e+00  0.0000000000000000e+00  0.0000000000000000e+00  0.0000000000000000e+00  0.0000000000000000e+00  0.0000000000000000e+00  0.0000000000000000e+00  0.0000000000000000e+00  0.0000000000000000e+00  0.0000000000000000e+00  0.0000000000000000e+00  0.0000000000000000e+00  0.0000000000000000e+00  0.0000000000000000e+00  0.0000000000000000e+00  0.0000000000000000e+00  0.0000000000000000e+00  0.0000000000000000e+00  0.0000000000000000e+00  0.0000000000000000e+00  0.0000000000000000e+00  0.0000000000000000e+00  -3.3346695166813099e-11  -3.8860878765847159e-11  2.5536588809661870e-10  -6.1535938586249948e-11  -1.2933390275387690e-09  6.9681329171673371e-10  6.3635973848207600e-09  8.7552048725232108e-10  -2.6414137267114528e-08  -5.2705884986246099e-08  -4.6457804340389959e-08  -1.6012678041447743e-08  4.3336094478237818e-09  4.3903992627893685e-09  -4.1672966071432893e-10  -8.4150448221386096e-10  1.4098434000010990e-10  1.2951906892655604e-10  -5.0364915524466702e-11  -9.2015118882776066e-12  1.0965447490560810e-11  -2.1510865610185283e-12  -9.3780855754321166e-13  7.0052960048147073e-13  -1.5379163792412179e-13  -3.4940154693369524e-14  3.8593883620786527e-14  -1.3844154030052179e-14  1.6248836602867681e-15  1.0402185352760400e-15  -7.7529681014705627e-16  2.9054525356163715e-16  -6.4252940470572734e-17  5.3198114099353558e-19  7.5335992024246190e-18  -4.5317475935186478e-18  1.8438289597522757e-18  -6.1121149292884752e-19  1.9375004841208558e-19  0.0000000000000000e+00  0.0000000000000000e+00  -3.8860878765847165e-11  2.7947187922664012e-10  -2.4861776194476750e-10  -1.2242950932333512e-09  2.5710001298430862e-09  4.8051456900529107e-09  -1.3843639271221275e-08  -2.7042049667618413e-08  4.0321626481430600e-08  1.7281799595177729e-07  2.2561234340188192e-07  1.3213479560022479e-07  1.0687306927231444e-08  -2.5614767124797447e-08  -5.8222927707136090e-09  4.7555815740056486e-09  8.0456626545615242e-10  -9.5262758740445475e-10  4.3491216210422386e-11  1.4933877295849663e-10  -5.0327873020593885e-11  -7.2784813164389580e-12  1.0497966865352117e-11  -3.0365992355061407e-12  -2.8288770690233709e-13  5.6998413737643457e-13  -2.2730904485748422e-13  3.1615985214264983e-14  1.5046512743441304e-14  -1.2119587932160224e-14  4.5657636136705181e-15  -9.7481510233295853e-16  -1.8203044435149953e-17  1.2854003112044925e-16  -7.2921793739612435e-17  2.8508286267534677e-17  -9.0148477244860599e-18  2.4488393729216210e-18  -6.1121149292884829e-19  0.0000000000000000e+00  0.0000000000000000e+00  2.5536588809661891e-10  -2.4861776194476766e-10  -1.1193126427216291e-09  3.3149084514405921e-09  1.8288378481614039e-09  -1.9665843790972345e-08  1.2202669558297396e-09  9.8239707495964850e-08  3.7308327843380138e-08  -3.9961390730821861e-07  -8.5043775021894349e-07  -7.5385717651615898e-07  -2.4464404663134587e-07  8.0383056093643295e-08  6.5479449928374435e-08  -1.1635396181384385e-08  -1.1717641218410188e-08  3.4580507426768297e-09  1.3865380204432856e-09  -9.1258307389301636e-10  3.7174230332189535e-11  1.3271412439344823e-10  -5.4432279560826720e-11  1.6181429552691858e-12  7.3640567160663599e-12  -3.5705973148513269e-12  6.5775091184572631e-13  1.6706493870567554e-13  -1.7481321811682134e-13  7.0840675099388335e-14  -1.6201380407489149e-14  1.8625599362590409e-16  1.8675342744945344e-15  -1.1074386965456275e-15  4.3967855698543840e-16  -1.4038326282313705e-16  3.8041791164594802e-17  -9.0148477244860214e-18  1.8438289597522703e-18  0.0000000000000000e+00  0.0000000000000000e+00  -6.1535938586249728e-11  -1.2242950932333523e-09  3.3149084514405950e-09  6.2211755660783850e-10  -2.0142749199621489e-08  2.2936811339516400e-08  8.7916633892354224e-08  -1.6034063203607255e-07  -4.4299490630673835e-07  4.8164113851456628e-07  2.5592256655168140e-06  3.4494351180466788e-06  1.9761001035842978e-06  9.1172878397272878e-08  -3.9243331935274761e-07  -5.5496752791988555e-08  7.4100899033564197e-08  2.2301064181613847e-09  -1.3185821174444689e-08  2.7459713230584741e-09  1.3520655196261720e-09  -8.8305769878432537e-10  1.1848383418220945e-10  8.4989385884308364e-11  -5.4239028641520072e-11  1.2748711719944348e-11  1.4346548931165947e-12  -2.4651187858223352e-12  1.0969197736515367e-12  -2.7113483353335725e-13  1.1449505038434730e-14  2.6841102273228042e-14  -1.6892118101424505e-14  6.8420640757423755e-15  -2.2037545628981112e-15  5.9939056665495786e-16  -1.4038326282313774e-16  2.8508286267534721e-17  -4.5317475935186640e-18  0.0000000000000000e+00  0.0000000000000000e+00  -1.2933390275387704e-09  2.5710001298430866e-09  1.8288378481614062e-09  -2.0142749199621505e-08  2.9957964247752582e-08  6.6273357587965762e-08  -2.5315207978103604e-07  -1.4072839111412520e-07  1.3657043484565014e-06  9.4030533180624575e-07  -5.5621666137493800e-06  -1.2855764901469805e-05  -1.1458037752608397e-05  -3.4226638687078151e-06  1.3925216383711804e-06  8.7244196085747587e-07  -2.5203924286760571e-07  -1.3434928135798034e-07  6.5946258112761019e-08  7.0995671867331778e-09  -1.2714514121842135e-08  3.1279355729995734e-09  7.7787580656251598e-10  -7.8544914726719166e-10  2.3229585075695617e-10  3.0486474058765524e-12  -3.3659638494468842e-11  1.6827255178023854e-11  -4.5113418826057633e-12  3.1952250502285123e-13  3.8038791429312255e-13  -2.5720766448134797e-13  1.0652393539952429e-13  -3.4618890155207430e-14  9.4365690525555539e-15  -2.2037545628981081e-15  4.3967855698543933e-16  -7.2921793739612287e-17  7.5335992024246051e-18  0.0000000000000000e+00  0.0000000000000000e+00  6.9681329171673795e-10  4.8051456900529132e-09  -1.9665843790972348e-08  2.2936811339516396e-08  6.6273357587965828e-08  -2.7345823902624148e-07  7.4053877684678992e-08  1.4414639032110750e-06  -1.5485241539288609e-06  -7.0415861245605339e-06  5.1220413094511950e-06  3.7665985354486338e-05  5.2745695908488323e-05  2.9383689703278579e-05  1.4353669949203666e-07  -5.8982603333491765e-06  -2.7803503117654247e-07  1.0798431282059133e-06  -1.2098413949587762e-07  -1.5224412147193646e-07  6.3114883964857922e-08  2.6132364257250474e-09  -1.0594765425694832e-08  4.0122390734285606e-09  -2.6571316604036531e-10  -4.3735787880997609e-10  2.5477507270027350e-10  -7.4554785405766864e-11  7.3177014489812526e-12  5.2799741688605077e-12  -3.9039463103954599e-12  1.6584373039305022e-12  -5.4436314663207225e-13  1.4872177787063291e-13  -3.4618890155207423e-14  6.8420640757423629e-15  -1.1074386965456303e-15  1.2854003112044920e-16  5.3198114099348493e-19  0.0000000000000000e+00  0.0000000000000000e+00  6.3635973848207591e-09  -1.3843639271221300e-08  1.2202669558297628e-09  8.7916633892354211e-08  -2.5315207978103610e-07  7.4053877684678555e-08  1.3713716221639179e-06  -2.7371215393888842e-06  -4.3468564073259838e-06  1.7941532264971129e-05  1.9947108624123301e-05  -7.5946259148738351e-05  -1.9494740552840651e-04  -1.7477279888192688e-04  -4.6823099993081945e-05  2.3831013783054433e-05  1.0872942911865259e-05  -4.7992794399957893e-06  -1.1839322464871895e-06  1.0594475872639894e-06  -1.1262979665662027e-07  -1.2663671710173054e-07  6.5580510296285593e-08  -9.0823169216887583e-09  -5.2263816150749200e-09  3.7882421560426239e-09  -1.2226077612450544e-09  1.5286256970505756e-10  7.1105804116396728e-11  -5.9011649512767168e-11  2.5817920682263176e-11  -8.5699895526694941e-12  2.3472172596052279e-12  -5.4436314663207296e-13  1.0652393539952446e-13  -1.6892118101424523e-14  1.8675342744945447e-15  -1.8203044435151031e-17  -6.4252940470572524e-17  0.0000000000000000e+00  0.0000000000000000e+00  8.7552048725231973e-10  -2.7042049667618383e-08  9.8239707495964916e-08  -1.6034063203607268e-07  -1.4072839111412525e-07  1.4414639032110756e-06  -2.7371215393888816e-06  -2.9529848249107721e-06  2.1029525479031187e-05  -8.4835523795400950e-06  -1.0832651360901008e-04  4.1338204552752242e-05  5.5278528846795978e-04  8.1124456792395128e-04  4.3597181370633327e-04  -1.9444676093361962e-05  -8.6535040349095115e-05  5.1037505188304612e-06  1.4253199020908742e-05  -3.9147893175249507e-06  -1.1601474768832571e-06  1.0008335480839083e-06  -2.1580374850708758e-07  -5.2711937921477150e-08  5.4873748048262777e-08  -1.9861324902249062e-08  3.0269131637171647e-09  9.1360820432953731e-10  -8.8721891723648564e-10  4.0185605094077648e-10  -1.3510436384189450e-10  3.7106601996883718e-11  -8.5699895526694585e-12  1.6584373039304965e-12  -2.5720766448134691e-13  2.6841102273227868e-14  1.8625599362592584e-16  -9.7481510233295735e-16  2.9054525356163646e-16  0.0000000000000000e+00  0.0000000000000000e+00  -2.6414137267114531e-08  4.0321626481430586e-08  3.7308327843380006e-08  -4.4299490630673809e-07  1.3657043484565023e-06  -1.5485241539288618e-06  -4.3468564073259889e-06  2.1029525479031193e-05  -1.8786368136616016e-05  -9.2430905496340880e-05  2.1319896749061955e-04  3.8699602458285552e-04  -1.0057802045712418e-03  -2.9693992137809250e-03  -2.6791168869922757e-03  -6.1725880870071130e-04  4.0249580859806302e-04  1.1870644199607323e-04  -8.2484457678161962e-05  -2.4252527063224655e-06  1.3767013837521907e-05  -4.3775604520199607e-06  -3.0872757494022926e-07  7.6353034881217495e-07  -3.1869594070555637e-07  5.7855696456346817e-08  1.0819428187201016e-08  -1.3242581334187014e-08  6.2528493332095072e-09  -2.1333196070360886e-09  5.8775006562446578e-10  -1.3510436384189509e-10  2.5817920682263215e-11  -3.9039463103954752e-12  3.8038791429312584e-13  1.1449505038434015e-14  -1.6201380407489080e-14  4.5657636136704929e-15  -7.7529681014705341e-16  0.0000000000000000e+00  0.0000000000000000e+00  -5.2705884986246060e-08  1.7281799595177716e-07  -3.9961390730821840e-07  4.8164113851456660e-07  9.4030533180624438e-07  -7.0415861245605373e-06  1.7941532264971139e-05  -8.4835523795400781e-06  -9.2430905496340921e-05  2.5644423505458125e-04  1.1554553259040135e-04  -1.5890247425889195e-03  9.9705850252217033e-06  8.0730945436569817e-03  1.2576479140454368e-02  6.4419316367400718e-03  -6.7983781024290226e-04  -1.2168522117490461e-03  2.2503661233413302e-04  1.5479725984607185e-04  -7.9110728345484896e-05  4.1221429431802168e-06  9.9269925720149693e-06  -5.0256647481407917e-06  1.0776242094333919e-06  1.0786361237181000e-07  -1.9567261206377476e-07  9.7238030661139871e-08  -3.3749514292796101e-08  9.3312090031463119e-09  -2.1333196070360853e-09  4.0185605094077741e-10  -5.9011649512767052e-11  5.2799741688604932e-12  3.1952250502285335e-13  -2.7113483353335710e-13  7.0840675099388525e-14  -1.2119587932160209e-14  1.0402185352760396e-15  0.0000000000000000e+00  0.0000000000000000e+00  -4.6457804340389900e-08  2.2561234340188169e-07  -8.5043775021894306e-07  2.5592256655168119e-06  -5.5621666137493791e-06  5.1220413094512010e-06  1.9947108624123291e-05  -1.0832651360901016e-04  2.1319896749061957e-04  1.1554553259040137e-04  -1.5954947269598981e-03  2.0187222250365932e-03  7.0563351209355406e-03  -1.2606601980846599e-02  -4.5501693477535951e-02  -4.1342842467192560e-02  -7.5839485825456290e-03  6.6755483558751166e-03  8.9536973534255348e-04  -1.2542359254695420e-03  2.1253846278180202e-04  1.1291477715437140e-04  -7.7167405150799887e-05  1.9652630806068016e-05  5.8764123532318020e-07  -2.8492003446277185e-06  1.5106818922677805e-06  -5.3514418520933895e-07  1.4855845027971597e-07  -3.3749514292796101e-08  6.2528493332095006e-09  -8.8721891723648812e-10  7.1105804116396831e-11  7.3177014489811944e-12  -4.5113418826057455e-12  1.0969197736515312e-12  -1.7481321811682089e-13  1.5046512743441146e-14  1.6248836602867880e-15  0.0000000000000000e+00  0.0000000000000000e+00  -1.6012678041447713e-08  1.3213479560022458e-07  -7.5385717651615792e-07  3.4494351180466763e-06  -1.2855764901469794e-05  3.7665985354486331e-05  -7.5946259148738379e-05  4.1338204552752499e-05  3.8699602458285546e-04  -1.5890247425889195e-03  2.0187222250365915e-03  5.3675040441436457e-03  -2.1432265654478800e-02  -1.0545876617030986e-02  1.1683302975483112e-01  1.9720100702503457e-01  9.4401139055122305e-02  -1.7310553231115879e-02  -1.5715013366346894e-02  5.5037938253515812e-03  8.8738294671712595e-04  -1.1324751900254771e-03  3.5126482192848697e-04  -1.0804069207396865e-05  -4.0563880170267390e-05  2.3431641122374787e-05  -8.5092111267791599e-06  2.3733146275689677e-06  -5.3514418520933959e-07  9.7238030661140029e-08  -1.3242581334187038e-08  9.1360820432954403e-10  1.5286256970505663e-10  -7.4554785405766748e-11  1.6827255178023821e-11  -2.4651187858223279e-12  1.6706493870567526e-13  3.1615985214264996e-14  -1.3844154030052170e-14  0.0000000000000000e+00  0.0000000000000000e+00  4.3336094478237860e-09  1.0687306927231370e-08  -2.4464404663134528e-07  1.9761001035842940e-06  -1.1458037752608383e-05  5.2745695908488283e-05  -1.9494740552840640e-04  5.5278528846795956e-04  -1.0057802045712429e-03  9.9705850252223403e-06  7.0563351209355406e-03  -2.1432265654478807e-02  6.4086442299186855e-03  1.2110873500574572e-01  -1.4030138043619972e-01  -7.0323803491815862e-01  -6.4402216219753872e-01  -7.8827941273574509e-02  1.0718681356903102e-01  -3.8868277354831933e-03  -1.5208954688329177e-02  6.1297969540753672e-03  -5.3870901470498046e-04  -5.5627447864071641e-04  3.6243158759420477e-04  -1.3577908088620237e-04  3.8081046447783537e-05  -8.5092111267791209e-06  1.5106818922677750e-06  -1.9567261206377380e-07  1.0819428187200882e-08  3.0269131637171841e-09  -1.2226077612450517e-09  2.5477507270027262e-10  -3.3659638494468615e-11  1.4346548931165577e-12  6.5775091184573247e-13  -2.2730904485748422e-13  3.8593883620786495e-14  0.0000000000000000e+00  0.0000000000000000e+00  4.3903992627893652e-09  -2.5614767124797430e-08  8.0383056093643308e-08  9.1172878397272203e-08  -3.4226638687078096e-06  2.9383689703278559e-05  -1.7477279888192672e-04  8.1124456792395062e-04  -2.9693992137809228e-03  8.0730945436569852e-03  -1.2606601980846602e-02  -1.0545876617030969e-02  1.2110873500574579e-01  -2.3796075727270399e-01  -3.4882580358754955e-01  1.6588887364193516e+00  3.1473705291579774e+00  1.3583001043631782e+00  -3.9200371488929198e-01  -1.6295225346459880e-01  1.0300888184329296e-01  -1.5380048121121032e-02  -7.1093589019031542e-03  5.5784088164237723e-03  -2.1764525131497303e-03  6.1452060739236884e-04  -1.3577908088620302e-04  2.3431641122374831e-05  -2.8492003446277337e-06  1.0786361237181299e-07  5.7855696456346148e-08  -1.9861324902249009e-08  3.7882421560426015e-09  -4.3735787880997345e-10  3.0486474058762208e-12  1.2748711719944358e-11  -3.5705973148513326e-12  5.6998413737643275e-13  -3.4940154693369284e-14  0.0000000000000000e+00  0.0000000000000000e+00  -4.1672966071433079e-10  -5.8222927707135991e-09  6.5479449928374396e-08  -3.9243331935274745e-07  1.3925216383711818e-06  1.4353669949202491e-07  -4.6823099993081871e-05  4.3597181370633290e-04  -2.6791168869922735e-03  1.2576479140454356e-02  -4.5501693477535965e-02  1.1683302975483115e-01  -1.4030138043619986e-01  -3.4882580358754972e-01  1.8916823033277261e+00  -1.0634344520269714e+00  -1.1013013757916760e+01  -1.0178017936576817e+01  -3.9233978483084841e-01  1.5950016431483802e+00  -3.7297540526157819e-01  -7.7006367455910871e-02  8.5062585323222167e-02  -3.5101090368133359e-02  9.9937280321636627e-03  -2.1764525131497269e-03  3.6243158759420531e-04  -4.0563880170267268e-05  5.8764123532316580e-07  1.0776242094333938e-06  -3.1869594070555621e-07  5.4873748048262903e-08  -5.2263816150749125e-09  -2.6571316604036583e-10  2.3229585075695622e-10  -5.4239028641520001e-11  7.3640567160663696e-12  -2.8288770690233512e-13  -1.5379163792412184e-13  0.0000000000000000e+00  0.0000000000000000e+00  -8.4150448221386075e-10  4.7555815740056519e-09  -1.1635396181384433e-08  -5.5496752791988290e-08  8.7244196085747449e-07  -5.8982603333491782e-06  2.3831013783054456e-05  -1.9444676093362080e-05  -6.1725880870071043e-04  6.4419316367400606e-03  -4.1342842467192512e-02  1.9720100702503446e-01  -7.0323803491815817e-01  1.6588887364193519e+00  -1.0634344520269707e+00  -8.5993500432008112e+00  2.2436983628521990e+01  5.1828140746027280e+01  1.8614444554278585e+01  -8.3074224307804236e+00  -4.1078716307146995e-01  1.2716512490350940e+00  -5.7103754255946726e-01  1.6434375444985302e-01  -3.5101090368133345e-02  5.5784088164237662e-03  -5.5627447864071760e-04  -1.0804069207396641e-05  1.9652630806067951e-05  -5.0256647481407706e-06  7.6353034881216997e-07  -5.2711937921476482e-08  -9.0823169216888675e-09  4.0122390734285780e-09  -7.8544914726719352e-10  8.4989385884308390e-11  1.6181429552691881e-12  -3.0365992355061366e-12  7.0052960048147043e-13  0.0000000000000000e+00  0.0000000000000000e+00  1.4098434000011031e-10  8.0456626545614963e-10  -1.1717641218410178e-08  7.4100899033564184e-08  -2.5203924286760603e-07  -2.7803503117653966e-07  1.0872942911865251e-05  -8.6535040349095102e-05  4.0249580859806318e-04  -6.7983781024290291e-04  -7.5839485825456186e-03  9.4401139055122263e-02  -6.4402216219753838e-01  3.1473705291579774e+00  -1.1013013757916763e+01  2.2436983628521997e+01  9.2716545586609715e+00  -1.7649371391299098e+02  -1.6492351305100641e+02  1.4398897749364528e+01  1.8062134980998671e+01  -9.4147709473229817e+00  2.7498637209643326e+00  -5.7103754255946815e-01  8.5062585323222292e-02  -7.1093589019031837e-03  -5.3870901470497601e-04  3.5126482192848535e-04  -7.7167405150799779e-05  9.9269925720149405e-06  -3.0872757494022756e-07  -2.1580374850708814e-07  6.5580510296285500e-08  -1.0594765425694818e-08  7.7787580656251143e-10  1.1848383418221012e-10  -5.4432279560826947e-11  1.0497966865352114e-11  -9.3780855754321166e-13  0.0000000000000000e+00  0.0000000000000000e+00  1.2951906892655593e-10  -9.5262758740445434e-10  3.4580507426768334e-09  2.2301064181613550e-09  -1.3434928135798023e-07  1.0798431282059137e-06  -4.7992794399957952e-06  5.1037505188305129e-06  1.1870644199607299e-04  -1.2168522117490461e-03  6.6755483558751201e-03  -1.7310553231115921e-02  -7.8827941273574259e-02  1.3583001043631764e+00  -1.0178017936576815e+01  5.1828140746027280e+01  -1.7649371391299113e+02  2.5072688089606535e+02  9.1520847726372756e+02  2.0892749664138253e+02  -1.5888163403676597e+02  4.7446201912930697e+01  -9.4147709473229391e+00  1.2716512490350886e+00  -7.7006367455910121e-02  -1.5380048121121049e-02  6.1297969540753767e-03  -1.1324751900254734e-03  1.1291477715437080e-04  4.1221429431803345e-06  -4.3775604520199708e-06  1.0008335480839121e-06  -1.2663671710173057e-07  2.6132364257250619e-09  3.1279355729995676e-09  -8.8305769878432237e-10  1.3271412439344802e-10  -7.2784813164388740e-12  -2.1510865610185364e-12  0.0000000000000000e+00  0.0000000000000000e+00  -5.0364915524466721e-11  4.3491216210422489e-11  1.3865380204432856e-09  -1.3185821174444697e-08  6.5946258112761072e-08  -1.2098413949587794e-07  -1.1839322464871874e-06  1.4253199020908737e-05  -8.2484457678162003e-05  2.2503661233413337e-04  8.9536973534255152e-04  -1.5715013366346890e-02  1.0718681356903105e-01  -3.9200371488929242e-01  -3.9233978483084408e-01  1.8614444554278595e+01  -1.6492351305100649e+02  9.1520847726372824e+02  -2.9768268065430138e+03  -2.8229491031461512e+03  8.7694389491047298e+02  -1.5888163403676666e+02  1.8062134980998717e+01  -4.1078716307148450e-01  -3.7297540526157519e-01  1.0300888184329224e-01  -1.5208954688329114e-02  8.8738294671711056e-04  2.1253846278180402e-04  -7.9110728345485099e-05  1.3767013837521908e-05  -1.1601474768832584e-06  -1.1262979665662040e-07  6.3114883964858002e-08  -1.271451412184214