<?xml version="1.0"?>
<VTKFile type="UnstructuredGrid"  version="0.1"  >
<UnstructuredGrid>
<Piece  NumberOfPoints="1681" NumberOfCells="3200">
<Points>
<DataArray  type="Float64"  NumberOfComponents="3"  format="ascii">-2 -2 0  -1.9 -2 0  -1.8 -2 0  -1.7 -2 0  -1.6 -2 0  -1.5 -2 0  -1.4 -2 0  -1.3 -2 0  -1.2 -2 0  -1.1 -2 0  -1 -2 0  -0.8999999999999999 -2 0  -0.8 -2 0  -0.7 -2 0  -0.6000000000000001 -2 0  -0.5 -2 0  -0.3999999999999999 -2 0  -0.3 -2 0  -0.2 -2 0  -0.1000000000000001 -2 0  0 -2 0  0.1000000000000001 -2 0  0.2000000000000002 -2 0  0.2999999999999998 -2 0  0.3999999999999999 -2 0  0.5 -2 0  0.6000000000000001 -2 0  0.7000000000000002 -2 0  0.7999999999999998 -2 0  0.8999999999999999 -2 0  1 -2 0  1.1 -2 0  1.2 -2 0  1.3 -2 0  1.4 -2 0  1.5 -2 0  1.6 -2 0  1.7 -2 0  1.8 -2 0  1.9 -2 0  2 -2 0  -2 -1.9 0  -1.9 -1.9 0  -1.8 -1.9 0  -1.7 -1.9 0  -1.6 -1.9 0  -1.5 -1.9 0  -1.4 -1.9 0  -1.3 -1.9 0  -1.2 -1.9 0  -1.1 -1.9 0  -1 -1.9 0  -0.8999999999999999 -1.9 0  -0.8 -1.9 0  -0.7 -1.9 0  -0.6000000000000001 -1.9 0  -0.5 -1.9 0  -0.3999999999999999 -1.9 0  -0.3 -1.9 0  -0.2 -1.9 0  -0.1000000000000001 -1.9 0  0 -1.9 0  0.1000000000000001 -1.9 0  0.2000000000000002 -1.9 0  0.2999999999999998 -1.9 0  0.3999999999999999 -1.9 0  0.5 -1.9 0  0.6000000000000001 -1.9 0  0.7000000000000002 -1.9 0  0.7999999999999998 -1.9 0  0.8999999999999999 -1.9 0  1 -1.9 0  1.1 -1.9 0  1.2 -1.9 0  1.3 -1.9 0  1.4 -1.9 0  1.5 -1.9 0  1.6 -1.9 0  1.7 -1.9 0  1.8 -1.9 0  1.9 -1.9 0  2 -1.9 0  -2 -1.8 0  -1.9 -1.8 0  -1.8 -1.8 0  -1.7 -1.8 0  -1.6 -1.8 0  -1.5 -1.8 0  -1.4 -1.8 0  -1.3 -1.8 0  -1.2 -1.8 0  -1.1 -1.8 0  -1 -1.8 0  -0.8999999999999999 -1.8 0  -0.8 -1.8 0  -0.7 -1.8 0  -0.6000000000000001 -1.8 0  -0.5 -1.8 0  -0.3999999999999999 -1.8 0  -0.3 -1.8 0  -0.2 -1.8 0  -0.1000000000000001 -1.8 0  0 -1.8 0  0.1000000000000001 -1.8 0  0.2000000000000002 -1.8 0  0.2999999999999998 -1.8 0  0.3999999999999999 -1.8 0  0.5 -1.8 0  0.6000000000000001 -1.8 0  0.7000000000000002 -1.8 0  0.7999999999999998 -1.8 0  0.8999999999999999 -1.8 0  1 -1.8 0  1.1 -1.8 0  1.2 -1.8 0  1.3 -1.8 0  1.4 -1.8 0  1.5 -1.8 0  1.6 -1.8 0  1.7 -1.8 0  1.8 -1.8 0  1.9 -1.8 0  2 -1.8 0  -2 -1.7 0  -1.9 -1.7 0  -1.8 -1.7 0  -1.7 -1.7 0  -1.6 -1.7 0  -1.5 -1.7 0  -1.4 -1.7 0  -1.3 -1.7 0  -1.2 -1.7 0  -1.1 -1.7 0  -1 -1.7 0  -0.8999999999999999 -1.7 0  -0.8 -1.7 0  -0.7 -1.7 0  -0.6000000000000001 -1.7 0  -0.5 -1.7 0  -0.3999999999999999 -1.7 0  -0.3 -1.7 0  -0.2 -1.7 0  -0.1000000000000001 -1.7 0  0 -1.7 0  0.1000000000000001 -1.7 0  0.2000000000000002 -1.7 0  0.2999999999999998 -1.7 0  0.3999999999999999 -1.7 0  0.5 -1.7 0  0.6000000000000001 -1.7 0  0.7000000000000002 -1.7 0  0.7999999999999998 -1.7 0  0.8999999999999999 -1.7 0  1 -1.7 0  1.1 -1.7 0  1.2 -1.7 0  1.3 -1.7 0  1.4 -1.7 0  1.5 -1.7 0  1.6 -1.7 0  1.7 -1.7 0  1.8 -1.7 0  1.9 -1.7 0  2 -1.7 0  -2 -1.6 0  -1.9 -1.6 0  -1.8 -1.6 0  -1.7 -1.6 0  -1.6 -1.6 0  -1.5 -1.6 0  -1.4 -1.6 0  -1.3 -1.6 0  -1.2 -1.6 0  -1.1 -1.6 0  -1 -1.6 0  -0.8999999999999999 -1.6 0  -0.8 -1.6 0  -0.7 -1.6 0  -0.6000000000000001 -1.6 0  -0.5 -1.6 0  -0.3999999999999999 -1.6 0  -0.3 -1.6 0  -0.2 -1.6 0  -0.1000000000000001 -1.6 0  0 -1.6 0  0.1000000000000001 -1.6 0  0.2000000000000002 -1.6 0  0.2999999999999998 -1.6 0  0.3999999999999999 -1.6 0  0.5 -1.6 0  0.6000000000000001 -1.6 0  0.7000000000000002 -1.6 0  0.7999999999999998 -1.6 0  0.8999999999999999 -1.6 0  1 -1.6 0  1.1 -1.6 0  1.2 -1.6 0  1.3 -1.6 0  1.4 -1.6 0  1.5 -1.6 0  1.6 -1.6 0  1.7 -1.6 0  1.8 -1.6 0  1.9 -1.6 0  2 -1.6 0  -2 -1.5 0  -1.9 -1.5 0  -1.8 -1.5 0  -1.7 -1.5 0  -1.6 -1.5 0  -1.5 -1.5 0  -1.4 -1.5 0  -1.3 -1.5 0  -1.2 -1.5 0  -1.1 -1.5 0  -1 -1.5 0  -0.8999999999999999 -1.5 0  -0.8 -1.5 0  -0.7 -1.5 0  -0.6000000000000001 -1.5 0  -0.5 -1.5 0  -0.3999999999999999 -1.5 0  -0.3 -1.5 0  -0.2 -1.5 0  -0.1000000000000001 -1.5 0  0 -1.5 0  0.1000000000000001 -1.5 0  0.2000000000000002 -1.5 0  0.2999999999999998 -1.5 0  0.3999999999999999 -1.5 0  0.5 -1.5 0  0.6000000000000001 -1.5 0  0.7000000000000002 -1.5 0  0.7999999999999998 -1.5 0  0.8999999999999999 -1.5 0  1 -1.5 0  1.1 -1.5 0  1.2 -1.5 0  1.3 -1.5 0  1.4 -1.5 0  1.5 -1.5 0  1.6 -1.5 0  1.7 -1.5 0  1.8 -1.5 0  1.9 -1.5 0  2 -1.5 0  -2 -1.4 0  -1.9 -1.4 0  -1.8 -1.4 0  -1.7 -1.4 0  -1.6 -1.4 0  -1.5 -1.4 0  -1.4 -1.4 0  -1.3 -1.4 0  -1.2 -1.4 0  -1.1 -1.4 0  -1 -1.4 0  -0.8999999999999999 -1.4 0  -0.8 -1.4 0  -0.7 -1.4 0  -0.6000000000000001 -1.4 0  -0.5 -1.4 0  -0.3999999999999999 -1.4 0  -0.3 -1.4 0  -0.2 -1.4 0  -0.1000000000000001 -1.4 0  0 -1.4 0  0.1000000000000001 -1.4 0  0.2000000000000002 -1.4 0  0.2999999999999998 -1.4 0  0.3999999999999999 -1.4 0  0.5 -1.4 0  0.6000000000000001 -1.4 0  0.7000000000000002 -1.4 0  0.7999999999999998 -1.4 0  0.8999999999999999 -1.4 0  1 -1.4 0  1.1 -1.4 0  1.2 -1.4 0  1.3 -1.4 0  1.4 -1.4 0  1.5 -1.4 0  1.6 -1.4 0  1.7 -1.4 0  1.8 -1.4 0  1.9 -1.4 0  2 -1.4 0  -2 -1.3 0  -1.9 -1.3 0  -1.8 -1.3 0  -1.7 -1.3 0  -1.6 -1.3 0  -1.5 -1.3 0  -1.4 -1.3 0  -1.3 -1.3 0  -1.2 -1.3 0  -1.1 -1.3 0  -1 -1.3 0  -0.8999999999999999 -1.3 0  -0.8 -1.3 0  -0.7 -1.3 0  -0.6000000000000001 -1.3 0  -0.5 -1.3 0  -0.3999999999999999 -1.3 0  -0.3 -1.3 0  -0.2 -1.3 0  -0.1000000000000001 -1.3 0  0 -1.3 0  0.1000000000000001 -1.3 0  0.2000000000000002 -1.3 0  0.2999999999999998 -1.3 0  0.3999999999999999 -1.3 0  0.5 -1.3 0  0.6000000000000001 -1.3 0  0.7000000000000002 -1.3 0  0.7999999999999998 -1.3 0  0.8999999999999999 -1.3 0  1 -1.3 0  1.1 -1.3 0  1.2 -1.3 0  1.3 -1.3 0  1.4 -1.3 0  1.5 -1.3 0  1.6 -1.3 0  1.7 -1.3 0  1.8 -1.3 0  1.9 -1.3 0  2 -1.3 0  -2 -1.2 0  -1.9 -1.2 0  -1.8 -1.2 0  -1.7 -1.2 0  -1.6 -1.2 0  -1.5 -1.2 0  -1.4 -1.2 0  -1.3 -1.2 0  -1.2 -1.2 0  -1.1 -1.2 0  -1 -1.2 0  -0.8999999999999999 -1.2 0  -0.8 -1.2 0  -0.7 -1.2 0  -0.6000000000000001 -1.2 0  -0.5 -1.2 0  -0.3999999999999999 -1.2 0  -0.3 -1.2 0  -0.2 -1.2 0  -0.1000000000000001 -1.2 0  0 -1.2 0  0.1000000000000001 -1.2 0  0.2000000000000002 -1.2 0  0.2999999999999998 -1.2 0  0.3999999999999999 -1.2 0  0.5 -1.2 0  0.6000000000000001 -1.2 0  0.7000000000000002 -1.2 0  0.7999999999999998 -1.2 0  0.8999999999999999 -1.2 0  1 -1.2 0  1.1 -1.2 0  1.2 -1.2 0  1.3 -1.2 0  1.4 -1.2 0  1.5 -1.2 0  1.6 -1.2 0  1.7 -1.2 0  1.8 -1.2 0  1.9 -1.2 0  2 -1.2 0  -2 -1.1 0  -1.9 -1.1 0  -1.8 -1.1 0  -1.7 -1.1 0  -1.6 -1.1 0  -1.5 -1.1 0  -1.4 -1.1 0  -1.3 -1.1 0  -1.2 -1.1 0  -1.1 -1.1 0  -1 -1.1 0  -0.8999999999999999 -1.1 0  -0.8 -1.1 0  -0.7 -1.1 0  -0.6000000000000001 -1.1 0  -0.5 -1.1 0  -0.3999999999999999 -1.1 0  -0.3 -1.1 0  -0.2 -1.1 0  -0.1000000000000001 -1.1 0  0 -1.1 0  0.1000000000000001 -1.1 0  0.2000000000000002 -1.1 0  0.2999999999999998 -1.1 0  0.3999999999999999 -1.1 0  0.5 -1.1 0  0.6000000000000001 -1.1 0  0.7000000000000002 -1.1 0  0.7999999999999998 -1.1 0  0.8999999999999999 -1.1 0  1 -1.1 0  1.1 -1.1 0  1.2 -1.1 0  1.3 -1.1 0  1.4 -1.1 0  1.5 -1.1 0  1.6 -1.1 0  1.7 -1.1 0  1.8 -1.1 0  1.9 -1.1 0  2 -1.1 0  -2 -1 0  -1.9 -1 0  -1.8 -1 0  -1.7 -1 0  -1.6 -1 0  -1.5 -1 0  -1.4 -1 0  -1.3 -1 0  -1.2 -1 0  -1.1 -1 0  -1 -1 0  -0.8999999999999999 -1 0  -0.8 -1 0  -0.7 -1 0  -0.6000000000000001 -1 0  -0.5 -1 0  -0.3999999999999999 -1 0  -0.3 -1 0  -0.2 -1 0  -0.1000000000000001 -1 0  0 -1 0  0.1000000000000001 -1 0  0.2000000000000002 -1 0  0.2999999999999998 -1 0  0.3999999999999999 -1 0  0.5 -1 0  0.6000000000000001 -1 0  0.7000000000000002 -1 0  0.7999999999999998 -1 0  0.8999999999999999 -1 0  1 -1 0  1.1 -1 0  1.2 -1 0  1.3 -1 0  1.4 -1 0  1.5 -1 0  1.6 -1 0  1.7 -1 0  1.8 -1 0  1.9 -1 0  2 -1 0  -2 -0.8999999999999999 0  -1.9 -0.8999999999999999 0  -1.8 -0.8999999999999999 0  -1.7 -0.8999999999999999 0  -1.6 -0.8999999999999999 0  -1.5 -0.8999999999999999 0  -1.4 -0.8999999999999999 0  -1.3 -0.8999999999999999 0  -1.2 -0.8999999999999999 0  -1.1 -0.8999999999999999 0  -1 -0.8999999999999999 0  -0.8999999999999999 -0.8999999999999999 0  -0.8 -0.8999999999999999 0  -0.7 -0.8999999999999999 0  -0.6000000000000001 -0.8999999999999999 0  -0.5 -0.8999999999999999 0  -0.3999999999999999 -0.8999999999999999 0  -0.3 -0.8999999999999999 0  -0.2 -0.8999999999999999 0  -0.1000000000000001 -0.8999999999999999 0  0 -0.8999999999999999 0  0.1000000000000001 -0.8999999999999999 0  0.2000000000000002 -0.8999999999999999 0  0.2999999999999998 -0.8999999999999999 0  0.3999999999999999 -0.8999999999999999 0  0.5 -0.8999999999999999 0  0.6000000000000001 -0.8999999999999999 0  0.7000000000000002 -0.8999999999999999 0  0.7999999999999998 -0.8999999999999999 0  0.8999999999999999 -0.8999999999999999 0  1 -0.8999999999999999 0  1.1 -0.8999999999999999 0  1.2 -0.8999999999999999 0  1.3 -0.8999999999999999 0  1.4 -0.8999999999999999 0  1.5 -0.8999999999999999 0  1.6 -0.8999999999999999 0  1.7 -0.8999999999999999 0  1.8 -0.8999999999999999 0  1.9 -0.8999999999999999 0  2 -0.8999999999999999 0  -2 -0.8 0  -1.9 -0.8 0  -1.8 -0.8 0  -1.7 -0.8 0  -1.6 -0.8 0  -1.5 -0.8 0  -1.4 -0.8 0  -1.3 -0.8 0  -1.2 -0.8 0  -1.1 -0.8 0  -1 -0.8 0  -0.8999999999999999 -0.8 0  -0.8 -0.8 0  -0.7 -0.8 0  -0.6000000000000001 -0.8 0  -0.5 -0.8 0  -0.3999999999999999 -0.8 0  -0.3 -0.8 0  -0.2 -0.8 0  -0.1000000000000001 -0.8 0  0 -0.8 0  0.1000000000000001 -0.8 0  0.2000000000000002 -0.8 0  0.2999999999999998 -0.8 0  0.3999999999999999 -0.8 0  0.5 -0.8 0  0.6000000000000001 -0.8 0  0.7000000000000002 -0.8 0  0.7999999999999998 -0.8 0  0.8999999999999999 -0.8 0  1 -0.8 0  1.1 -0.8 0  1.2 -0.8 0  1.3 -0.8 0  1.4 -0.8 0  1.5 -0.8 0  1.6 -0.8 0  1.7 -0.8 0  1.8 -0.8 0  1.9 -0.8 0  2 -0.8 0  -2 -0.7 0  -1.9 -0.7 0  -1.8 -0.7 0  -1.7 -0.7 0  -1.6 -0.7 0  -1.5 -0.7 0  -1.4 -0.7 0  -1.3 -0.7 0  -1.2 -0.7 0  -1.1 -0.7 0  -1 -0.7 0  -0.8999999999999999 -0.7 0  -0.8 -0.7 0  -0.7 -0.7 0  -0.6000000000000001 -0.7 0  -0.5 -0.7 0  -0.3999999999999999 -0.7 0  -0.3 -0.7 0  -0.2 -0.7 0  -0.1000000000000001 -0.7 0  0 -0.7 0  0.1000000000000001 -0.7 0  0.2000000000000002 -0.7 0  0.2999999999999998 -0.7 0  0.3999999999999999 -0.7 0  0.5 -0.7 0  0.600000000000000
[...]
<PointData  Scalars="f_1726"> 
<DataArray  type="Float64"  Name="f_1726"  format="ascii">0.0000000000000000e+00  0.0000000000000000e+00  0.0000000000000000e+00  0.0000000000000000e+00  0.0000000000000000e+00  0.0000000000000000e+00  0.0000000000000000e+00  0.0000000000000000e+00  0.0000000000000000e+00  0.0000000000000000e+00  0.0000000000000000e+00  0.0000000000000000e+00  0.0000000000000000e+00  0.0000000000000000e+00  0.0000000000000000e+00  0.0000000000000000e+00  0.0000000000000000e+00  0.0000000000000000e+00  0.0000000000000000e+00  0.0000000000000000e+00  0.0000000000000000e+00  0.0000000000000000e+00  0.0000000000000000e+00  0.0000000000000000e+00  0.0000000000000000e+00  0.0000000000000000e+00  0.0000000000000000e+00  0.0000000000000000e+00  0.0000000000000000e+00  0.0000000000000000e+00  0.0000000000000000e+00  0.0000000000000000e+00  0.0000000000000000e+00  0.0000000000000000e+00  0.0000000000000000e+00  0.0000000000000000e+00  0.0000000000000000e+00  0.0000000000000000e+00  0.0000000000000000e+00  0.0000000000000000e+00  0.0000000000000000e+00  0.0000000000000000e+00  -2.4502893047909411e-11  -2.8554672401088983e-11  1.8764087453988748e-10  -4.5216130541241609e-11  -9.5033548925736636e-10  5.1201300386399122e-10  4.6759220168659562e-09  6.4332566549944464e-10  -1.9408903256267089e-08  -3.8727875621649588e-08  -3.4136834408891328e-08  -1.1765991667164599e-08  3.1843026207020645e-09  3.2260313364069152e-09  -3.0620972349118796e-10  -6.1833096874748441e-10  1.0359419988013542e-10  9.5169607593696146e-11  -3.7007749412336697e-11  -6.7611995896347779e-12  8.0573257931441251e-12  -1.5806017261310937e-12  -6.8909445658544273e-13  5.1474371872913258e-13  -1.1300490309060202e-13  -2.5673754752797049e-14  2.8358486438701850e-14  -1.0172577037701430e-14  1.1939519146990542e-15  7.6434451416606820e-16  -5.6968208466800655e-16  2.1349039951292069e-16  -4.7212562458992078e-17  3.9089561757359858e-19  5.5356302805843294e-18  -3.3298929938525651e-18  1.3548312231075504e-18  -4.4911346584633243e-19  1.4236603329115759e-19  0.0000000000000000e+00  0.0000000000000000e+00  -2.8554672401088919e-11  2.0535376991131850e-10  -1.8268240376653293e-10  -8.9960254167651624e-10  1.8891509606145741e-09  3.5307837953358868e-09  -1.0172198796903776e-08  -1.9870288419505532e-08  2.9628018496282855e-08  1.2698532344442593e-07  1.6577820059860631e-07  9.7091623271917021e-08  7.8529502638314681e-09  -1.8821532273778229e-08  -4.2781755835400116e-09  3.4943644671702310e-09  5.9118905348220881e-10  -6.9998336482499701e-10  3.1957008453060635e-11  1.0973297244009239e-10  -3.6980530867707849e-11  -5.3481716360726388e-12  7.7138246544508337e-12  -2.2312695733344902e-12  -2.0786369360207686e-13  4.1881992465145387e-13  -1.6702492367244870e-13  2.3231180794203290e-14  1.1056060897556775e-14  -8.9053792407589730e-15  3.3548877017097424e-15  -7.1628657875886519e-16  -1.3375455909786983e-17  9.4450218204945836e-17  -5.3582368625292263e-17  2.0947667704347932e-17  -6.6240402094208891e-18  1.7993881836279858e-18  -4.4911346584633282e-19  0.0000000000000000e+00  0.0000000000000000e+00  1.8764087453988746e-10  -1.8268240376653334e-10  -8.2246225104417114e-10  2.4357690272736662e-09  1.3438158705473353e-09  -1.4450309534320787e-08  8.9664269754536237e-10  7.2185775345652573e-08  2.7413870021292689e-08  -2.9363320059899764e-07  -6.2489506481163335e-07  -5.5392840811276415e-07  -1.7976254856527381e-07  5.9064846350555984e-08  4.8113792098583852e-08  -8.5495988965722032e-09  -8.6100319120744440e-09  2.5409488729899739e-09  1.0188173866054712e-09  -6.7055896679041026e-10  2.7315336209823308e-11  9.7517309577229101e-11  -3.9996416969085382e-11  1.1889988969176230e-12  5.4110517761918674e-12  -2.6236472215701061e-12  4.8331027001321187e-13  1.2275802158753817e-13  -1.2845139722092250e-13  5.2053178784849792e-14  -1.1904648702588069e-14  1.3685945994101632e-16  1.3722497045759816e-15  -8.1373736746120201e-16  3.2307239453207040e-16  -1.0315253303107510e-16  2.7952813182657981e-17  -6.6240402094208598e-18  1.3548312231075459e-18  0.0000000000000000e+00  0.0000000000000000e+00  -4.5216130541241576e-11  -8.9960254167651573e-10  2.4357690272736683e-09  4.5712715687517703e-10  -1.4800735930809073e-08  1.6853791126851184e-08  6.4600460903857407e-08  -1.1781705318505033e-07  -3.2550922229934445e-07  3.5390617407390867e-07  1.8804991755234309e-06  2.5346181788148100e-06  1.4520230340029866e-06  6.6993124118089783e-08  -2.8835696024552728e-07  -4.0778583645724417e-08  5.4448766052845352e-08  1.6386649044624654e-09  -9.6888391599242970e-09  2.0177184367130283e-09  9.9348726029489324e-10  -6.4886395009179460e-10  8.7061002667580499e-11  6.2449541764582816e-11  -3.9854417691990789e-11  9.3676545219781975e-12  1.0541732915614524e-12  -1.8113501700015524e-12  8.0600814447932092e-13  -1.9922777337894406e-13  8.4130075260792069e-15  1.9722633832195660e-14  -1.2412197404310730e-14  5.0274956314623152e-15  -1.6193017655397025e-15  4.4042754087633428e-16  -1.0315253303107560e-16  2.0947667704347960e-17  -3.3298929938525778e-18  0.0000000000000000e+00  0.0000000000000000e+00  -9.5033548925736698e-10  1.8891509606145737e-09  1.3438158705473314e-09  -1.4800735930809078e-08  2.2012879843826757e-08  4.8697149291120354e-08  -1.8601418535482901e-07  -1.0340613062326770e-07  1.0035089659678711e-06  6.9092906695465177e-07  -4.0870369003459584e-06  -9.4463163697035812e-06  -8.4192772982937515e-06  -2.5149468723771643e-06  1.0232141026636401e-06  6.4106358817451837e-07  -1.8519648141945705e-07  -9.8718810236231425e-08  4.8456799132974968e-08  5.2167069208134331e-09  -9.3425263920510103e-09  2.2983828059290232e-09  5.7157711123729103e-10  -5.7714194326558549e-10  1.7068918998112476e-10  2.2401224755046094e-12  -2.4732841378598427e-11  1.2364536631124341e-11  -3.3148990356937806e-12  2.3478265920536406e-13  2.7950609000431420e-13  -1.8899419754678298e-13  7.8272961775672130e-14  -2.5437692061148205e-14  6.9339177713807007e-15  -1.6193017655396996e-15  3.2307239453207104e-16  -5.3582368625292146e-17  5.5356302805843202e-18  0.0000000000000000e+00  0.0000000000000000e+00  5.1201300386399297e-10  3.5307837953358863e-09  -1.4450309534320789e-08  1.6853791126851214e-08  4.8697149291120341e-08  -2.0093499372009875e-07  5.4414215130274527e-08  1.0591764993837762e-06  -1.1378435414968731e-06  -5.1741028858974275e-06  3.7636362393524327e-06  2.7676673987280236e-05  3.8757128378630746e-05  2.1590907361306575e-05  1.0546965384453928e-07  -4.3339959595340396e-06  -2.0429798510501201e-07  7.9346035781326501e-07  -8.8898207625416984e-08  -1.1186780000053282e-07  4.6376327362755008e-08  1.9201858633405630e-09  -7.7849514860425160e-09  2.9481621614097275e-09  -1.9524397414314109e-10  -3.2136717820261030e-10  1.8720674796766520e-10  -5.4782278239835746e-11  5.3769902853631225e-12  3.8796840798805092e-12  -2.8685894788038834e-12  1.2186068718831863e-12  -3.9999381931027560e-13  1.0927960923353228e-13  -2.5437692061148196e-14  5.0274956314623073e-15  -8.1373736746120408e-16  9.4450218204945799e-17  3.9089561757355664e-19  0.0000000000000000e+00  0.0000000000000000e+00  4.6759220168659570e-09  -1.0172198796903786e-08  8.9664269754538139e-10  6.4600460903857394e-08  -1.8601418535482911e-07  5.4414215130274639e-08  1.0076732347456736e-06  -2.0112156842912862e-06  -3.1940363838311737e-06  1.3183298794829772e-05  1.4656980752873635e-05  -5.5804722357084748e-05  -1.4324584201626814e-04  -1.2842169748052121e-04  -3.4405250822092161e-05  1.7510844148974863e-05  7.9893541459724854e-06  -3.5264733202791255e-06  -8.6994423484931864e-07  7.7847387247028616e-07  -8.2759501284297567e-08  -9.3051677821739761e-08  4.8188050473331994e-08  -6.6736160523887205e-09  -3.8403046869000808e-09  2.7835709633220900e-09  -8.9836270321460172e-10  1.1232223096696093e-10  5.2247993530813546e-11  -4.3361302502656224e-11  1.8970807932609901e-11  -6.2971618740721474e-12  1.7247170427116828e-12  -3.9999381931027615e-13  7.8272961775672256e-14  -1.2412197404310743e-14  1.3722497045759891e-15  -1.3375455909787775e-17  -4.7212562458991930e-17  0.0000000000000000e+00  0.0000000000000000e+00  6.4332566549943998e-10  -1.9870288419505522e-08  7.2185775345652586e-08  -1.1781705318505041e-07  -1.0340613062326772e-07  1.0591764993837766e-06  -2.0112156842912875e-06  -2.1698303527510535e-06  1.5452332265111584e-05  -6.2336485094656001e-06  -7.9597482267330309e-05  3.0374992180836633e-05  4.0618234382842482e-04  5.9609621835391411e-04  3.2034870831160325e-04  -1.4287797224987318e-05  -6.3585276680748837e-05  3.7501963082258396e-06  1.0473140125365844e-05  -2.8765568363690809e-06  -8.5246737056459817e-07  7.3540473095713176e-07  -1.5857092112292979e-07  -3.8732323271524616e-08  4.0320804590633948e-08  -1.4593947539182705e-08  2.2241523228869613e-09  6.7131222468659969e-10  -6.5192158114555299e-10  2.9528071035526549e-10  -9.9273638990719574e-11  2.7265643433411207e-11  -6.2971618740721223e-12  1.2186068718831822e-12  -1.8899419754678219e-13  1.9722633832195530e-14  1.3685945994103220e-16  -7.1628657875886431e-16  2.1349039951292017e-16  0.0000000000000000e+00  0.0000000000000000e+00  -1.9408903256267099e-08  2.9628018496282889e-08  2.7413870021292620e-08  -3.2550922229934435e-07  1.0035089659678715e-06  -1.1378435414968740e-06  -3.1940363838311741e-06  1.5452332265111594e-05  -1.3804077642700587e-05  -6.7917512676105637e-05  1.5665694822875037e-04  2.8436167820782731e-04  -7.3903949578907574e-04  -2.1818915184204039e-03  -1.9685943154616175e-03  -4.5355698658635393e-04  2.9575079932134322e-04  8.7224573163170710e-05  -6.0608939941197913e-05  -1.7820568838951392e-06  1.0115895022353007e-05  -3.2165974778019931e-06  -2.2685062828142905e-07  5.6103618011288616e-07  -2.3417530615395638e-07  4.2511917159725473e-08  7.9500319412269401e-09  -9.7305460852010329e-09  4.5945452072504835e-09  -1.5675467061046384e-09  4.3187419097621926e-10  -9.9273638990720013e-11  1.8970807932609933e-11  -2.8685894788038948e-12  2.7950609000431672e-13  8.4130075260786563e-15  -1.1904648702588015e-14  3.3548877017097243e-15  -5.6968208466800448e-16  0.0000000000000000e+00  0.0000000000000000e+00  -3.8727875621649554e-08  1.2698532344442585e-07  -2.9363320059899770e-07  3.5390617407390899e-07  6.9092906695465114e-07  -5.1741028858974292e-06  1.3183298794829786e-05  -6.2336485094656119e-06  -6.7917512676105664e-05  1.8843323552340685e-04  8.4901961440663376e-05  -1.1676030600143890e-03  7.3263085674901533e-06  5.9320472742304632e-03  9.2410993580107487e-03  4.7334814177950471e-03  -4.9953955170001165e-04  -8.9413357007180646e-04  1.6535515787407721e-04  1.1374382628154823e-04  -5.8129949786471868e-05  3.0289186727403207e-06  7.2942771708768262e-06  -3.6928194893776284e-06  7.9182991350407245e-07  7.9257346027438445e-08  -1.4377871815541423e-07  7.1449750974136687e-08  -2.4798881418338261e-08  6.8565000240062497e-09  -1.5675467061046359e-09  2.9528071035526606e-10  -4.3361302502656159e-11  3.8796840798805060e-12  2.3478265920536477e-13  -1.9922777337894388e-13  5.2053178784849956e-14  -8.9053792407589699e-15  7.6434451416606889e-16  0.0000000000000000e+00  0.0000000000000000e+00  -3.4136834408891288e-08  1.6577820059860615e-07  -6.2489506481163272e-07  1.8804991755234290e-06  -4.0870369003459575e-06  3.7636362393524353e-06  1.4656980752873626e-05  -7.9597482267330322e-05  1.5665694822875051e-04  8.4901961440663376e-05  -1.1723571543637910e-03  1.4833414383664876e-03  5.1849403340743123e-03  -9.2632333875671373e-03  -3.3434291560274304e-02  -3.0378400084406267e-02  -5.5726266147026627e-03  4.9051411716187609e-03  6.5791073909079643e-04  -9.2160283305108318e-04  1.5617161449007450e-04  8.2968902744388421e-05  -5.6702010970985392e-05  1.4440600735462766e-05  4.3179422331467316e-07  -2.0935703213540216e-06  1.1100373410463014e-06  -3.9321979793802136e-07  1.0915959738612154e-07  -2.4798881418338264e-08  4.5945452072504810e-09  -6.5192158114555516e-10  5.2247993530813714e-11  5.3769902853630676e-12  -3.3148990356937689e-12  8.0600814447931728e-13  -1.2845139722092229e-13  1.1056060897556669e-14  1.1939519146990670e-15  0.0000000000000000e+00  0.0000000000000000e+00  -1.1765991667164571e-08  9.7091623271916901e-08  -5.5392840811276362e-07  2.5346181788148088e-06  -9.4463163697035761e-06  2.7676673987280229e-05  -5.5804722357084769e-05  3.0374992180836748e-05  2.8436167820782731e-04  -1.1676030600143899e-03  1.4833414383664881e-03  3.9440003535571345e-03  -1.5748262623299231e-02  -7.7490283685060371e-03  8.5848004374204673e-02  1.4490177092221385e-01  6.9365225018474974e-02  -1.2719660293182545e-02  -1.1547269971906610e-02  4.0441450280370344e-03  6.5204210873609015e-04  -8.3213398874443960e-04  2.5810666754684606e-04  -7.9387462819559974e-06  -2.9806024628474833e-05  1.7217388214527963e-05  -6.2525023579863290e-06  1.7438931863399681e-06  -3.9321979793802194e-07  7.1449750974136793e-08  -9.7305460852010544e-09  6.7131222468660527e-10  1.1232223096696022e-10  -5.4782278239835655e-11  1.2364536631124330e-11  -1.8113501700015494e-12  1.2275802158753830e-13  2.3231180794203265e-14  -1.0172577037701426e-14  0.0000000000000000e+00  0.0000000000000000e+00  3.1843026207020711e-09  7.8529502638314052e-09  -1.7976254856527339e-07  1.4520230340029845e-06  -8.4192772982937447e-06  3.8757128378630719e-05  -1.4324584201626806e-04  4.0618234382842466e-04  -7.3903949578907617e-04  7.3263085674894985e-06  5.1849403340743158e-03  -1.5748262623299238e-02  4.7090220893636668e-03  8.8989759439990351e-02  -1.0309236648804607e-01  -5.1673385535279048e-01  -4.7322249122049193e-01  -5.7922160038681510e-02  7.8760039514859354e-02  -2.8560108826908505e-03  -1.1175421979132349e-02  4.5041272731754060e-03  -3.9583920701075797e-04  -4.0874617371319100e-04  2.6631192037413252e-04  -9.9769415843315430e-05  2.7981657660370917e-05  -6.2525023579863028e-06  1.1100373410462978e-06  -1.4377871815541359e-07  7.9500319412268590e-09  2.2241523228869737e-09  -8.9836270321459966e-10  1.8720674796766458e-10  -2.4732841378598285e-11  1.0541732915614290e-12  4.8331027001321601e-13  -1.6702492367244872e-13  2.8358486438701834e-14  0.0000000000000000e+00  0.0000000000000000e+00  3.2260313364069132e-09  -1.8821532273778225e-08  5.9064846350556030e-08  6.6993124118089187e-08  -2.5149468723771601e-06  2.1590907361306552e-05  -1.2842169748052116e-04  5.9609621835391390e-04  -2.1818915184204030e-03  5.9320472742304666e-03  -9.2632333875671356e-03  -7.7490283685060501e-03  8.8989759439990421e-02  -1.7485171936484367e-01  -2.5631449578137061e-01  1.2189385809757158e+00  2.3126634610211689e+00  9.9806838481847160e-01  -2.8804129021680935e-01  -1.1973605236097137e-01  7.5690127677265642e-02  -1.1301140106938624e-02  -5.2239017971981994e-03  4.0989715449337412e-03  -1.5992404310768173e-03  4.5154497749620763e-04  -9.9769415843315931e-05  1.7217388214528000e-05  -2.0935703213540331e-06  7.9257346027440563e-08  4.2511917159724977e-08  -1.4593947539182677e-08  2.7835709633220755e-09  -3.2136717820260885e-10  2.2401224755044349e-12  9.3676545219781927e-12  -2.6236472215701102e-12  4.1881992465145256e-13  -2.5673754752796900e-14  0.0000000000000000e+00  0.0000000000000000e+00  -3.0620972349118977e-10  -4.2781755835400009e-09  4.8113792098583819e-08  -2.8835696024552722e-07  1.0232141026636413e-06  1.0546965384452692e-07  -3.4405250822092080e-05  3.2034870831160298e-04  -1.9685943154616166e-03  9.2410993580107417e-03  -3.3434291560274318e-02  8.5848004374204701e-02  -1.0309236648804607e-01  -2.5631449578137100e-01  1.3899934889257555e+00  -7.8140338978512613e-01  -8.0922771175821531e+00  -7.4787286623785372e+00  -2.8828823180407415e-01  1.1719948402023164e+00  -2.7405943584239456e-01  -5.6583681721420802e-02  6.2503328144729295e-02  -2.5792009038764666e-02  7.3433138695465647e-03  -1.5992404310768151e-03  2.6631192037413295e-04  -2.9806024628474752e-05  4.3179422331466300e-07  7.9182991350407414e-07  -2.3417530615395633e-07  4.0320804590634067e-08  -3.8403046869000808e-09  -1.9524397414314040e-10  1.7068918998112471e-10  -3.9854417691990731e-11  5.4110517761918763e-12  -2.0786369360207611e-13  -1.1300490309060195e-13  0.0000000000000000e+00  0.0000000000000000e+00  -6.1833096874748410e-10  3.4943644671702339e-09  -8.5495988965722363e-09  -4.0778583645724185e-08  6.4106358817451721e-07  -4.3339959595340388e-06  1.7510844148974873e-05  -1.4287797224987435e-05  -4.5355698658635301e-04  4.7334814177950428e-03  -3.0378400084406242e-02  1.4490177092221379e-01  -5.1673385535279071e-01  1.2189385809757158e+00  -7.8140338978512436e-01  -6.3187357348617770e+00  1.6486521600332527e+01  3.8082915959712700e+01  1.3677749527444908e+01  -6.1042295887778586e+00  -3.0184322229962945e-01  9.3439947777365073e-01  -4.1959395861214599e-01  1.2075851649563853e-01  -2.5792009038764663e-02  4.0989715449337369e-03  -4.0874617371319230e-04  -7.9387462819557822e-06  1.4440600735462713e-05  -3.6928194893776157e-06  5.6103618011288288e-07  -3.8732323271524226e-08  -6.6736160523887859e-09  2.9481621614097399e-09  -5.7714194326558673e-10  6.2449541764582868e-11  1.1889988969176123e-12  -2.2312695733344862e-12  5.1474371872913238e-13  0.0000000000000000e+00  0.0000000000000000e+00  1.0359419988013573e-10  5.9118905348220633e-10  -8.6100319120744324e-09  5.4448766052845312e-08  -1.8519648141945718e-07  -2.0429798510501037e-07  7.9893541459724803e-06  -6.3585276680748823e-05  2.9575079932134328e-04  -4.9953955170001262e-04  -5.5726266147026566e-03  6.9365225018474946e-02  -4.7322249122049181e-01  2.3126634610211698e+00  -8.0922771175821548e+00  1.6486521600332523e+01  6.8127398799664141e+00  -1.2968621250186808e+02  -1.2118451862048508e+02  1.0580198421329209e+01  1.3271916735448103e+01  -6.9179006926720321e+00  2.0205785405137204e+00  -4.1959395861214666e-01  6.2503328144729434e-02  -5.2239017971982236e-03  -3.9583920701075456e-04  2.5810666754684492e-04  -5.6702010970985290e-05  7.2942771708768178e-06  -2.2685062828142926e-07  -1.5857092112292989e-07  4.8188050473331901e-08  -7.7849514860425110e-09  5.7157711123728885e-10  8.7061002667580758e-11  -3.9996416969085544e-11  7.7138246544508369e-12  -6.8909445658544384e-13  0.0000000000000000e+00  0.0000000000000000e+00  9.5169607593696017e-11  -6.9998336482499670e-10  2.5409488729899747e-09  1.6386649044624509e-09  -9.8718810236231333e-08  7.9346035781326522e-07  -3.5264733202791302e-06  3.7501963082258646e-06  8.7224573163170575e-05  -8.9413357007180646e-04  4.9051411716187644e-03  -1.2719660293182567e-02  -5.7922160038681336e-02  9.9806838481847060e-01  -7.4787286623785363e+00  3.8082915959712707e+01  -1.2968621250186806e+02  1.8423216801844606e+02  6.7248809283058881e+02  1.5351830456848512e+02  -1.1674499276780996e+02  3.4863101281444337e+01  -6.9179006926720019e+00  9.3439947777364718e-01  -5.6583681721420302e-02  -1.1301140106938643e-02  4.5041272731754156e-03  -8.3213398874443733e-04  8.2968902744388082e-05  3.0289186727403846e-06  -3.2165974778019991e-06  7.3540473095713451e-07  -9.3051677821739880e-08  1.9201858633406003e-09  2.2983828059290182e-09  -6.4886395009179253e-10  9.7517309577229037e-11  -5.3481716360725912e-12  -1.5806017261310985e-12  0.0000000000000000e+00  0.0000000000000000e+00  -3.7007749412336710e-11  3.1957008453060803e-11  1.0188173866054703e-09  -9.6888391599242954e-09  4.8456799132974982e-08  -8.8898207625417156e-08  -8.6994423484931747e-07  1.0473140125365846e-05  -6.0608939941197947e-05  1.6535515787407742e-04  6.5791073909079578e-04  -1.1547269971906615e-02  7.8760039514859367e-02  -2.8804129021680958e-01  -2.8828823180407193e-01  1.3677749527444895e+01  -1.2118451862048498e+02  6.7248809283058847e+02  -2.1873492559905767e+03  -2.0742811126579309e+03  6.4437157440996180e+02  -1.1674499276781044e+02  1.3271916735448148e+01  -3.0184322229964111e-01  -2.7405943584239245e-01  7.5690127677265143e-02  -1.1175421979132315e-02  6.5204210873608039e-04  1.5617161449007566e-04  -5.8129949786472017e-05  1.0115895022353012e-05  -8.5246737056460040e-07  -8.2759501284297474e-08  4.6376327362755035e-08  -9.342526392051016