<?xml version="1.0"?>
<VTKFile type="UnstructuredGrid"  version="0.1"  >
<UnstructuredGrid>
<Piece  NumberOfPoints="1681" NumberOfCells="3200">
<Points>
<DataArray  type="Float64"  NumberOfComponents="3"  format="ascii">-2 -2 0  -1.9 -2 0  -1.8 -2 0  -1.7 -2 0  -1.6 -2 0  -1.5 -2 0  -1.4 -2 0  -1.3 -2 0  -1.2 -2 0  -1.1 -2 0  -1 -2 0  -0.8999999999999999 -2 0  -0.8 -2 0  -0.7 -2 0  -0.6000000000000001 -2 0  -0.5 -2 0  -0.3999999999999999 -2 0  -0.3 -2 0  -0.2 -2 0  -0.1000000000000001 -2 0  0 -2 0  0.1000000000000001 -2 0  0.2000000000000002 -2 0  0.2999999999999998 -2 0  0.3999999999999999 -2 0  0.5 -2 0  0.6000000000000001 -2 0  0.7000000000000002 -2 0  0.7999999999999998 -2 0  0.8999999999999999 -2 0  1 -2 0  1.1 -2 0  1.2 -2 0  1.3 -2 0  1.4 -2 0  1.5 -2 0  1.6 -2 0  1.7 -2 0  1.8 -2 0  1.9 -2 0  2 -2 0  -2 -1.9 0  -1.9 -1.9 0  -1.8 -1.9 0  -1.7 -1.9 0  -1.6 -1.9 0  -1.5 -1.9 0  -1.4 -1.9 0  -1.3 -1.9 0  -1.2 -1.9 0  -1.1 -1.9 0  -1 -1.9 0  -0.8999999999999999 -1.9 0  -0.8 -1.9 0  -0.7 -1.9 0  -0.6000000000000001 -1.9 0  -0.5 -1.9 0  -0.3999999999999999 -1.9 0  -0.3 -1.9 0  -0.2 -1.9 0  -0.1000000000000001 -1.9 0  0 -1.9 0  0.1000000000000001 -1.9 0  0.2000000000000002 -1.9 0  0.2999999999999998 -1.9 0  0.3999999999999999 -1.9 0  0.5 -1.9 0  0.6000000000000001 -1.9 0  0.7000000000000002 -1.9 0  0.7999999999999998 -1.9 0  0.8999999999999999 -1.9 0  1 -1.9 0  1.1 -1.9 0  1.2 -1.9 0  1.3 -1.9 0  1.4 -1.9 0  1.5 -1.9 0  1.6 -1.9 0  1.7 -1.9 0  1.8 -1.9 0  1.9 -1.9 0  2 -1.9 0  -2 -1.8 0  -1.9 -1.8 0  -1.8 -1.8 0  -1.7 -1.8 0  -1.6 -1.8 0  -1.5 -1.8 0  -1.4 -1.8 0  -1.3 -1.8 0  -1.2 -1.8 0  -1.1 -1.8 0  -1 -1.8 0  -0.8999999999999999 -1.8 0  -0.8 -1.8 0  -0.7 -1.8 0  -0.6000000000000001 -1.8 0  -0.5 -1.8 0  -0.3999999999999999 -1.8 0  -0.3 -1.8 0  -0.2 -1.8 0  -0.1000000000000001 -1.8 0  0 -1.8 0  0.1000000000000001 -1.8 0  0.2000000000000002 -1.8 0  0.2999999999999998 -1.8 0  0.3999999999999999 -1.8 0  0.5 -1.8 0  0.6000000000000001 -1.8 0  0.7000000000000002 -1.8 0  0.7999999999999998 -1.8 0  0.8999999999999999 -1.8 0  1 -1.8 0  1.1 -1.8 0  1.2 -1.8 0  1.3 -1.8 0  1.4 -1.8 0  1.5 -1.8 0  1.6 -1.8 0  1.7 -1.8 0  1.8 -1.8 0  1.9 -1.8 0  2 -1.8 0  -2 -1.7 0  -1.9 -1.7 0  -1.8 -1.7 0  -1.7 -1.7 0  -1.6 -1.7 0  -1.5 -1.7 0  -1.4 -1.7 0  -1.3 -1.7 0  -1.2 -1.7 0  -1.1 -1.7 0  -1 -1.7 0  -0.8999999999999999 -1.7 0  -0.8 -1.7 0  -0.7 -1.7 0  -0.6000000000000001 -1.7 0  -0.5 -1.7 0  -0.3999999999999999 -1.7 0  -0.3 -1.7 0  -0.2 -1.7 0  -0.1000000000000001 -1.7 0  0 -1.7 0  0.1000000000000001 -1.7 0  0.2000000000000002 -1.7 0  0.2999999999999998 -1.7 0  0.3999999999999999 -1.7 0  0.5 -1.7 0  0.6000000000000001 -1.7 0  0.7000000000000002 -1.7 0  0.7999999999999998 -1.7 0  0.8999999999999999 -1.7 0  1 -1.7 0  1.1 -1.7 0  1.2 -1.7 0  1.3 -1.7 0  1.4 -1.7 0  1.5 -1.7 0  1.6 -1.7 0  1.7 -1.7 0  1.8 -1.7 0  1.9 -1.7 0  2 -1.7 0  -2 -1.6 0  -1.9 -1.6 0  -1.8 -1.6 0  -1.7 -1.6 0  -1.6 -1.6 0  -1.5 -1.6 0  -1.4 -1.6 0  -1.3 -1.6 0  -1.2 -1.6 0  -1.1 -1.6 0  -1 -1.6 0  -0.8999999999999999 -1.6 0  -0.8 -1.6 0  -0.7 -1.6 0  -0.6000000000000001 -1.6 0  -0.5 -1.6 0  -0.3999999999999999 -1.6 0  -0.3 -1.6 0  -0.2 -1.6 0  -0.1000000000000001 -1.6 0  0 -1.6 0  0.1000000000000001 -1.6 0  0.2000000000000002 -1.6 0  0.2999999999999998 -1.6 0  0.3999999999999999 -1.6 0  0.5 -1.6 0  0.6000000000000001 -1.6 0  0.7000000000000002 -1.6 0  0.7999999999999998 -1.6 0  0.8999999999999999 -1.6 0  1 -1.6 0  1.1 -1.6 0  1.2 -1.6 0  1.3 -1.6 0  1.4 -1.6 0  1.5 -1.6 0  1.6 -1.6 0  1.7 -1.6 0  1.8 -1.6 0  1.9 -1.6 0  2 -1.6 0  -2 -1.5 0  -1.9 -1.5 0  -1.8 -1.5 0  -1.7 -1.5 0  -1.6 -1.5 0  -1.5 -1.5 0  -1.4 -1.5 0  -1.3 -1.5 0  -1.2 -1.5 0  -1.1 -1.5 0  -1 -1.5 0  -0.8999999999999999 -1.5 0  -0.8 -1.5 0  -0.7 -1.5 0  -0.6000000000000001 -1.5 0  -0.5 -1.5 0  -0.3999999999999999 -1.5 0  -0.3 -1.5 0  -0.2 -1.5 0  -0.1000000000000001 -1.5 0  0 -1.5 0  0.1000000000000001 -1.5 0  0.2000000000000002 -1.5 0  0.2999999999999998 -1.5 0  0.3999999999999999 -1.5 0  0.5 -1.5 0  0.6000000000000001 -1.5 0  0.7000000000000002 -1.5 0  0.7999999999999998 -1.5 0  0.8999999999999999 -1.5 0  1 -1.5 0  1.1 -1.5 0  1.2 -1.5 0  1.3 -1.5 0  1.4 -1.5 0  1.5 -1.5 0  1.6 -1.5 0  1.7 -1.5 0  1.8 -1.5 0  1.9 -1.5 0  2 -1.5 0  -2 -1.4 0  -1.9 -1.4 0  -1.8 -1.4 0  -1.7 -1.4 0  -1.6 -1.4 0  -1.5 -1.4 0  -1.4 -1.4 0  -1.3 -1.4 0  -1.2 -1.4 0  -1.1 -1.4 0  -1 -1.4 0  -0.8999999999999999 -1.4 0  -0.8 -1.4 0  -0.7 -1.4 0  -0.6000000000000001 -1.4 0  -0.5 -1.4 0  -0.3999999999999999 -1.4 0  -0.3 -1.4 0  -0.2 -1.4 0  -0.1000000000000001 -1.4 0  0 -1.4 0  0.1000000000000001 -1.4 0  0.2000000000000002 -1.4 0  0.2999999999999998 -1.4 0  0.3999999999999999 -1.4 0  0.5 -1.4 0  0.6000000000000001 -1.4 0  0.7000000000000002 -1.4 0  0.7999999999999998 -1.4 0  0.8999999999999999 -1.4 0  1 -1.4 0  1.1 -1.4 0  1.2 -1.4 0  1.3 -1.4 0  1.4 -1.4 0  1.5 -1.4 0  1.6 -1.4 0  1.7 -1.4 0  1.8 -1.4 0  1.9 -1.4 0  2 -1.4 0  -2 -1.3 0  -1.9 -1.3 0  -1.8 -1.3 0  -1.7 -1.3 0  -1.6 -1.3 0  -1.5 -1.3 0  -1.4 -1.3 0  -1.3 -1.3 0  -1.2 -1.3 0  -1.1 -1.3 0  -1 -1.3 0  -0.8999999999999999 -1.3 0  -0.8 -1.3 0  -0.7 -1.3 0  -0.6000000000000001 -1.3 0  -0.5 -1.3 0  -0.3999999999999999 -1.3 0  -0.3 -1.3 0  -0.2 -1.3 0  -0.1000000000000001 -1.3 0  0 -1.3 0  0.1000000000000001 -1.3 0  0.2000000000000002 -1.3 0  0.2999999999999998 -1.3 0  0.3999999999999999 -1.3 0  0.5 -1.3 0  0.6000000000000001 -1.3 0  0.7000000000000002 -1.3 0  0.7999999999999998 -1.3 0  0.8999999999999999 -1.3 0  1 -1.3 0  1.1 -1.3 0  1.2 -1.3 0  1.3 -1.3 0  1.4 -1.3 0  1.5 -1.3 0  1.6 -1.3 0  1.7 -1.3 0  1.8 -1.3 0  1.9 -1.3 0  2 -1.3 0  -2 -1.2 0  -1.9 -1.2 0  -1.8 -1.2 0  -1.7 -1.2 0  -1.6 -1.2 0  -1.5 -1.2 0  -1.4 -1.2 0  -1.3 -1.2 0  -1.2 -1.2 0  -1.1 -1.2 0  -1 -1.2 0  -0.8999999999999999 -1.2 0  -0.8 -1.2 0  -0.7 -1.2 0  -0.6000000000000001 -1.2 0  -0.5 -1.2 0  -0.3999999999999999 -1.2 0  -0.3 -1.2 0  -0.2 -1.2 0  -0.1000000000000001 -1.2 0  0 -1.2 0  0.1000000000000001 -1.2 0  0.2000000000000002 -1.2 0  0.2999999999999998 -1.2 0  0.3999999999999999 -1.2 0  0.5 -1.2 0  0.6000000000000001 -1.2 0  0.7000000000000002 -1.2 0  0.7999999999999998 -1.2 0  0.8999999999999999 -1.2 0  1 -1.2 0  1.1 -1.2 0  1.2 -1.2 0  1.3 -1.2 0  1.4 -1.2 0  1.5 -1.2 0  1.6 -1.2 0  1.7 -1.2 0  1.8 -1.2 0  1.9 -1.2 0  2 -1.2 0  -2 -1.1 0  -1.9 -1.1 0  -1.8 -1.1 0  -1.7 -1.1 0  -1.6 -1.1 0  -1.5 -1.1 0  -1.4 -1.1 0  -1.3 -1.1 0  -1.2 -1.1 0  -1.1 -1.1 0  -1 -1.1 0  -0.8999999999999999 -1.1 0  -0.8 -1.1 0  -0.7 -1.1 0  -0.6000000000000001 -1.1 0  -0.5 -1.1 0  -0.3999999999999999 -1.1 0  -0.3 -1.1 0  -0.2 -1.1 0  -0.1000000000000001 -1.1 0  0 -1.1 0  0.1000000000000001 -1.1 0  0.2000000000000002 -1.1 0  0.2999999999999998 -1.1 0  0.3999999999999999 -1.1 0  0.5 -1.1 0  0.6000000000000001 -1.1 0  0.7000000000000002 -1.1 0  0.7999999999999998 -1.1 0  0.8999999999999999 -1.1 0  1 -1.1 0  1.1 -1.1 0  1.2 -1.1 0  1.3 -1.1 0  1.4 -1.1 0  1.5 -1.1 0  1.6 -1.1 0  1.7 -1.1 0  1.8 -1.1 0  1.9 -1.1 0  2 -1.1 0  -2 -1 0  -1.9 -1 0  -1.8 -1 0  -1.7 -1 0  -1.6 -1 0  -1.5 -1 0  -1.4 -1 0  -1.3 -1 0  -1.2 -1 0  -1.1 -1 0  -1 -1 0  -0.8999999999999999 -1 0  -0.8 -1 0  -0.7 -1 0  -0.6000000000000001 -1 0  -0.5 -1 0  -0.3999999999999999 -1 0  -0.3 -1 0  -0.2 -1 0  -0.1000000000000001 -1 0  0 -1 0  0.1000000000000001 -1 0  0.2000000000000002 -1 0  0.2999999999999998 -1 0  0.3999999999999999 -1 0  0.5 -1 0  0.6000000000000001 -1 0  0.7000000000000002 -1 0  0.7999999999999998 -1 0  0.8999999999999999 -1 0  1 -1 0  1.1 -1 0  1.2 -1 0  1.3 -1 0  1.4 -1 0  1.5 -1 0  1.6 -1 0  1.7 -1 0  1.8 -1 0  1.9 -1 0  2 -1 0  -2 -0.8999999999999999 0  -1.9 -0.8999999999999999 0  -1.8 -0.8999999999999999 0  -1.7 -0.8999999999999999 0  -1.6 -0.8999999999999999 0  -1.5 -0.8999999999999999 0  -1.4 -0.8999999999999999 0  -1.3 -0.8999999999999999 0  -1.2 -0.8999999999999999 0  -1.1 -0.8999999999999999 0  -1 -0.8999999999999999 0  -0.8999999999999999 -0.8999999999999999 0  -0.8 -0.8999999999999999 0  -0.7 -0.8999999999999999 0  -0.6000000000000001 -0.8999999999999999 0  -0.5 -0.8999999999999999 0  -0.3999999999999999 -0.8999999999999999 0  -0.3 -0.8999999999999999 0  -0.2 -0.8999999999999999 0  -0.1000000000000001 -0.8999999999999999 0  0 -0.8999999999999999 0  0.1000000000000001 -0.8999999999999999 0  0.2000000000000002 -0.8999999999999999 0  0.2999999999999998 -0.8999999999999999 0  0.3999999999999999 -0.8999999999999999 0  0.5 -0.8999999999999999 0  0.6000000000000001 -0.8999999999999999 0  0.7000000000000002 -0.8999999999999999 0  0.7999999999999998 -0.8999999999999999 0  0.8999999999999999 -0.8999999999999999 0  1 -0.8999999999999999 0  1.1 -0.8999999999999999 0  1.2 -0.8999999999999999 0  1.3 -0.8999999999999999 0  1.4 -0.8999999999999999 0  1.5 -0.8999999999999999 0  1.6 -0.8999999999999999 0  1.7 -0.8999999999999999 0  1.8 -0.8999999999999999 0  1.9 -0.8999999999999999 0  2 -0.8999999999999999 0  -2 -0.8 0  -1.9 -0.8 0  -1.8 -0.8 0  -1.7 -0.8 0  -1.6 -0.8 0  -1.5 -0.8 0  -1.4 -0.8 0  -1.3 -0.8 0  -1.2 -0.8 0  -1.1 -0.8 0  -1 -0.8 0  -0.8999999999999999 -0.8 0  -0.8 -0.8 0  -0.7 -0.8 0  -0.6000000000000001 -0.8 0  -0.5 -0.8 0  -0.3999999999999999 -0.8 0  -0.3 -0.8 0  -0.2 -0.8 0  -0.1000000000000001 -0.8 0  0 -0.8 0  0.1000000000000001 -0.8 0  0.2000000000000002 -0.8 0  0.2999999999999998 -0.8 0  0.3999999999999999 -0.8 0  0.5 -0.8 0  0.6000000000000001 -0.8 0  0.7000000000000002 -0.8 0  0.7999999999999998 -0.8 0  0.8999999999999999 -0.8 0  1 -0.8 0  1.1 -0.8 0  1.2 -0.8 0  1.3 -0.8 0  1.4 -0.8 0  1.5 -0.8 0  1.6 -0.8 0  1.7 -0.8 0  1.8 -0.8 0  1.9 -0.8 0  2 -0.8 0  -2 -0.7 0  -1.9 -0.7 0  -1.8 -0.7 0  -1.7 -0.7 0  -1.6 -0.7 0  -1.5 -0.7 0  -1.4 -0.7 0  -1.3 -0.7 0  -1.2 -0.7 0  -1.1 -0.7 0  -1 -0.7 0  -0.8999999999999999 -0.7 0  -0.8 -0.7 0  -0.7 -0.7 0  -0.6000000000000001 -0.7 0  -0.5 -0.7 0  -0.3999999999999999 -0.7 0  -0.3 -0.7 0  -0.2 -0.7 0  -0.1000000000000001 -0.7 0  0 -0.7 0  0.1000000000000001 -0.7 0  0.2000000000000002 -0.7 0  0.2999999999999998 -0.7 0  0.3999999999999999 -0.7 0  0.5 -0.7 0  0.600000000000000
[...]
<PointData  Scalars="f_1726"> 
<DataArray  type="Float64"  Name="f_1726"  format="ascii">0.0000000000000000e+00  0.0000000000000000e+00  0.0000000000000000e+00  0.0000000000000000e+00  0.0000000000000000e+00  0.0000000000000000e+00  0.0000000000000000e+00  0.0000000000000000e+00  0.0000000000000000e+00  0.0000000000000000e+00  0.0000000000000000e+00  0.0000000000000000e+00  0.0000000000000000e+00  0.0000000000000000e+00  0.0000000000000000e+00  0.0000000000000000e+00  0.0000000000000000e+00  0.0000000000000000e+00  0.0000000000000000e+00  0.0000000000000000e+00  0.0000000000000000e+00  0.0000000000000000e+00  0.0000000000000000e+00  0.0000000000000000e+00  0.0000000000000000e+00  0.0000000000000000e+00  0.0000000000000000e+00  0.0000000000000000e+00  0.0000000000000000e+00  0.0000000000000000e+00  0.0000000000000000e+00  0.0000000000000000e+00  0.0000000000000000e+00  0.0000000000000000e+00  0.0000000000000000e+00  0.0000000000000000e+00  0.0000000000000000e+00  0.0000000000000000e+00  0.0000000000000000e+00  0.0000000000000000e+00  0.0000000000000000e+00  0.0000000000000000e+00  -4.1597820542158387e-11  -4.8476403821301673e-11  3.1855223831007404e-10  -7.6762057451246237e-11  -1.6133558212769941e-09  8.6922899301488572e-10  7.9381714047563412e-09  1.0921545276831623e-09  -3.2949908118837317e-08  -6.5747143283795321e-08  -5.7953071453315452e-08  -1.9974768241214000e-08  5.4058942635425108e-09  5.4767358422879786e-09  -5.1984298756661136e-10  -1.0497217868651371e-09  1.7586874037268155e-10  1.6156656481378124e-10  -6.2826937036110363e-11  -1.1478284079738038e-11  1.3678678339638355e-11  -2.6833397519088829e-12  -1.1698548202283861e-12  8.7386484506263733e-13  -1.9184500662659253e-13  -4.3585557050838001e-14  4.8143344845763065e-14  -1.7269676410789762e-14  2.0269360596117523e-15  1.2976045673666338e-15  -9.6713204754098667e-16  3.6243619514838831e-16  -8.0151339544460929e-17  6.6361166898738220e-19  9.3976721258688914e-18  -5.6530586372815212e-18  2.3000559963897547e-18  -7.6244634945000888e-19  2.4169050946617919e-19  0.0000000000000000e+00  0.0000000000000000e+00  -4.8476403821301751e-11  3.4862288513133525e-10  -3.1013439242590681e-10  -1.5272280303701565e-09  3.2071544565385908e-09  5.9941048758760501e-09  -1.7269034282825851e-08  -3.3733187757844870e-08  5.0298591028347107e-08  2.1557914348321662e-07  2.8143663790309598e-07  1.6482951270754738e-07  1.3331716183988671e-08  -3.1952746164390977e-08  -7.2629293130398415e-09  5.9322768837961459e-09  1.0036437781105035e-09  -1.1883405904581842e-09  5.4252446847621580e-11  1.8629034890678083e-10  -6.2780728936002525e-11  -9.0794292539669250e-12  1.3095526844202611e-11  -3.7879588794379364e-12  -3.5288390667922024e-13  7.1101792066214526e-13  -2.8355316196374715e-13  3.9438873106543467e-14  1.8769540242472753e-14  -1.5118393031902057e-14  5.6954913969525383e-15  -1.2160180637326862e-15  -2.2707107014546681e-17  1.6034527920335744e-16  -9.0965166845425109e-17  3.5562221988989932e-17  -1.1245432747748177e-17  3.0547669045400189e-18  -7.6244634945000994e-19  0.0000000000000000e+00  0.0000000000000000e+00  3.1855223831007446e-10  -3.1013439242590687e-10  -1.3962692917420257e-09  4.1351314181784983e-09  2.2813555654605358e-09  -2.4531853508563661e-08  1.5222031924965241e-09  1.2254760785405358e-07  4.6539698119813897e-08  -4.9849220497572442e-07  -1.0608654542502124e-06  -9.4038750725576967e-07  -3.0517744254927082e-07  1.0027260348549809e-07  8.1681329849757221e-08  -1.4514395500632110e-08  -1.4616990803511987e-08  4.3136920615361678e-09  1.7296154674625690e-09  -1.1383876797300292e-09  4.6372420247816447e-11  1.6555218747501272e-10  -6.7900707567725649e-11  2.0185274711070736e-12  9.1861789663062394e-12  -4.4540865470625517e-12  8.2050122974793199e-13  2.0840258095745612e-13  -2.1806805259843940e-13  8.8369107497117142e-14  -2.0210162097163006e-14  2.3234216641242059e-16  2.3296268256311831e-15  -1.3814573207300338e-15  5.4847023425330151e-16  -1.7511893591935804e-16  4.7454645626831219e-17  -1.1245432747748130e-17  2.3000559963897485e-18  0.0000000000000000e+00  0.0000000000000000e+00  -7.6762057451246392e-11  -1.5272280303701582e-09  4.1351314181785016e-09  7.7605095036984508e-10  -2.5126761804733161e-08  2.8612171525174000e-08  1.0967024891163443e-07  -2.0001444831902423e-07  -5.5260716306236169e-07  6.0081580934559844e-07  3.1924665826256262e-06  4.3029446334797852e-06  2.4650555945960050e-06  1.1373220089456429e-07  -4.8953489128497722e-07  -6.9228568281367469e-08  9.2436023557694657e-08  2.7819118538893719e-09  -1.6448449244272179e-08  3.4254195727371120e-09  1.6866132780265147e-09  -1.1015567059538470e-09  1.4780083144081565e-10  1.0601869853424448e-10  -6.7659639689163363e-11  1.5903183797287769e-11  1.7896381181181024e-12  -3.0750744070672715e-12  1.3683356526110101e-12  -3.3822296607290658e-13  1.4282508461568359e-14  3.3482519030150826e-14  -2.1071812179436287e-14  8.5350272984151988e-15  -2.7490396384955837e-15  7.4770051729712105e-16  -1.7511893591935888e-16  3.5562221988990000e-17  -5.6530586372815481e-18  0.0000000000000000e+00  0.0000000000000000e+00  -1.6133558212769970e-09  3.2071544565385962e-09  2.2813555654605403e-09  -2.5126761804733171e-08  3.7370600425394586e-08  8.2671677714381295e-08  -3.1579065727286266e-07  -1.7554946088264831e-07  1.7036268246838730e-06  1.1729693827722426e-06  -6.9384389507538589e-06  -1.6036725637379764e-05  -1.4293152464254545e-05  -4.2695492514151855e-06  1.7370796393546385e-06  1.0883142674154955e-06  -3.1440246602974230e-07  -1.6759193880954843e-07  8.2263642519261160e-08  8.8562455824598011e-09  -1.5860524531003270e-08  3.9018949848607911e-09  9.7034917684068057e-10  -9.7979642389055596e-10  2.8977387606591261e-10  3.8029881837339185e-12  -4.1988196869364692e-11  2.0990899926094161e-11  -5.6276038479435359e-12  3.9858342053485559e-13  4.7450903653321248e-13  -3.2084973385341041e-13  1.3288164017536026e-13  -4.3184800557933000e-14  1.1771502513764877e-14  -2.7490396384955798e-15  5.4847023425330289e-16  -9.0965166845425022e-17  9.3976721258688976e-18  0.0000000000000000e+00  0.0000000000000000e+00  8.6922899301489213e-10  5.9941048758760535e-09  -2.4531853508563687e-08  2.8612171525174010e-08  8.2671677714381374e-08  -3.4112126241850209e-07  9.2377367501291438e-08  1.7981319127374245e-06  -1.9316825711843538e-06  -8.7839180007598647e-06  6.3894114284559609e-06  4.6985852465488185e-05  6.5796804804697649e-05  3.6654230502574356e-05  1.7905264185296581e-07  -7.3576938773161970e-06  -3.4683051119336851e-07  1.3470336546422253e-06  -1.5091979873932240e-07  -1.8991458109740501e-07  7.8731688509935804e-08  3.2598414723785040e-09  -1.3216276715268763e-08  5.0050057468608655e-09  -3.3145979058326563e-10  -5.4557534005775707e-10  3.1781523475671534e-10  -9.3002217111897654e-11  9.1283538033704829e-12  6.5864223379495184e-12  -4.8699176099366228e-12  2.0687920348394455e-12  -6.7905741093952242e-13  1.8552068790103636e-13  -4.3184800557933007e-14  8.5350272984151909e-15  -1.3814573207300384e-15  1.6034527920335767e-16  6.6361166898727965e-19  0.0000000000000000e+00  0.0000000000000000e+00  7.9381714047563478e-09  -1.7269034282825891e-08  1.5222031924965640e-09  1.0967024891163446e-07  -3.1579065727286272e-07  9.2377367501291080e-08  1.7106963778574371e-06  -3.4143800465986750e-06  -5.4224189788507378e-06  2.2380887691454519e-05  2.4882712986413145e-05  -9.4737989570298776e-05  -2.4318413413274478e-04  -2.1801763224730180e-04  -5.8408753880899263e-05  2.9727630571072884e-05  1.3563284929747023e-05  -5.9867871127240817e-06  -1.4768780197583579e-06  1.3215915516776492e-06  -1.4049830262294157e-07  -1.5797101948766519e-07  8.1807396046939939e-08  -1.1329596157145185e-08  -6.5195691333480790e-09  4.7255842472248242e-09  -1.5251231941069811e-09  1.9068605480678790e-10  8.8699838600000457e-11  -7.3613171981487052e-11  3.2206166936185202e-11  -1.0690501282864828e-11  2.9279999667159316e-12  -6.7905741093952363e-13  1.3288164017536054e-13  -2.1071812179436328e-14  2.3296268256311993e-15  -2.2707107014548656e-17  -8.0151339544460621e-17  0.0000000000000000e+00  0.0000000000000000e+00  1.0921545276831446e-09  -3.3733187757844837e-08  1.2254760785405371e-07  -2.0001444831902457e-07  -1.7554946088264812e-07  1.7981319127374251e-06  -3.4143800465986737e-06  -3.6836553726200780e-06  2.6232957196732255e-05  -1.0582676564462543e-05  -1.3513023855958692e-04  5.1566705663587358e-05  6.8956348186850975e-04  1.0119745235169706e-03  5.4384631452306358e-04  -2.4255961275498475e-05  -1.0794680135597101e-04  6.3665948638156011e-06  1.7779933275471627e-05  -4.8834435519363812e-06  -1.4472080757752516e-06  1.2484743725728791e-06  -2.6920105749060453e-07  -6.5754693924487923e-08  6.8451410623111410e-08  -2.4775703405700202e-08  3.7758761385839898e-09  1.1396664628813234e-09  -1.1067475537288297e-09  5.0128913246704900e-10  -1.6853385480761872e-10  4.6288058324047119e-11  -1.0690501282864786e-11  2.0687920348394403e-12  -3.2084973385340945e-13  3.3482519030150656e-14  2.3234216641243819e-16  -1.2160180637326835e-15  3.6243619514838718e-16  0.0000000000000000e+00  0.0000000000000000e+00  -3.2949908118837311e-08  5.0298591028347167e-08  4.6539698119813699e-08  -5.5260716306236169e-07  1.7036268246838749e-06  -1.9316825711843576e-06  -5.4224189788507446e-06  2.6232957196732269e-05  -2.3434765168681670e-05  -1.1530150739532614e-04  2.6595176358808605e-04  4.8275222178980367e-04  -1.2546450029101426e-03  -3.7041312488385282e-03  -3.3420230376376881e-03  -7.6998998023504971e-04  5.0208718828892722e-04  1.4807852012468855e-04  -1.0289396447981956e-04  -3.0253440810946468e-06  1.7173449067438037e-05  -5.4607202658211377e-06  -3.8511745150566598e-07  9.5245415683619031e-07  -3.9755233562627854e-07  7.2171196170823055e-08  1.3496528811882531e-08  -1.6519253830066806e-08  7.8000204559659701e-09  -2.6611766392032522e-09  7.3317975383120733e-10  -1.6853385480761945e-10  3.2206166936185260e-11  -4.8699176099366486e-12  4.7450903653321763e-13  1.4282508461567309e-14  -2.0210162097162899e-14  5.6954913969525052e-15  -9.6713204754098332e-16  0.0000000000000000e+00  0.0000000000000000e+00  -6.5747143283795241e-08  2.1557914348321638e-07  -4.9849220497572432e-07  6.0081580934559949e-07  1.1729693827722399e-06  -8.7839180007598681e-06  2.2380887691454546e-05  -1.0582676564462553e-05  -1.1530150739532618e-04  3.1989740559022360e-04  1.4413549244085287e-04  -1.9822044058220938e-03  1.2437652502136938e-05  1.0070657268044212e-02  1.5688334922540282e-02  8.0358882590755853e-03  -8.4805319048234841e-04  -1.5179435226625143e-03  2.8071845106278180e-04  1.9309945418228793e-04  -9.8685457860603430e-05  5.1421036340112720e-06  1.2383273768759554e-05  -6.2691879735736771e-06  1.3442656986443317e-06  1.3455279955108931e-07  -2.4408878183961165e-07  1.2129808153644254e-07  -4.2100311047732248e-08  1.1640072745216168e-08  -2.6611766392032497e-09  5.0128913246705034e-10  -7.3613171981487001e-11  6.5864223379495184e-12  3.9858342053485645e-13  -3.3822296607290623e-13  8.8369107497117395e-14  -1.5118393031902048e-14  1.2976045673666350e-15  0.0000000000000000e+00  0.0000000000000000e+00  -5.7953071453315366e-08  2.8143663790309561e-07  -1.0608654542502111e-06  3.1924665826256220e-06  -6.9384389507538589e-06  6.3894114284559728e-06  2.4882712986413114e-05  -1.3513023855958703e-04  2.6595176358808616e-04  1.4413549244085284e-04  -1.9902752880318082e-03  2.5182239025926308e-03  8.8023164087974587e-03  -1.5725911195169032e-02  -5.6760385704624203e-02  -5.1572491158420129e-02  -9.4604796835055897e-03  8.3273098320265030e-03  1.1169151660559854e-03  -1.5645772597319739e-03  2.6512782717678072e-04  1.4085379714928530e-04  -9.6261289315458667e-05  2.4515371174343551e-05  7.3304399515047301e-07  -3.5541910234760591e-06  1.8844768255591123e-06  -6.6755735970717148e-07  1.8531694741693260e-07  -4.2100311047732275e-08  7.8000204559659668e-09  -1.1067475537288338e-09  8.8699838600000768e-11  9.1283538033703956e-12  -5.6276038479435133e-12  1.3683356526110030e-12  -2.1806805259843889e-13  1.8769540242472573e-14  2.0269360596117736e-15  0.0000000000000000e+00  0.0000000000000000e+00  -1.9974768241213974e-08  1.6482951270754711e-07  -9.4038750725576851e-07  4.3029446334797801e-06  -1.6036725637379747e-05  4.6985852465488178e-05  -9.4737989570298789e-05  5.1566705663587663e-05  4.8275222178980384e-04  -1.9822044058220947e-03  2.5182239025926308e-03  6.6956101307995061e-03  -2.6735349216678517e-02  -1.3155291124968247e-02  1.4574156092010054e-01  2.4599535455987623e-01  1.1775924485909417e-01  -2.1593782627972954e-02  -1.9603451033477402e-02  6.8656227162163580e-03  1.1069521697744415e-03  -1.4126887083554011e-03  4.3817988416124223e-04  -1.3477369489424835e-05  -5.0600786655934712e-05  2.9229439305482942e-05  -1.0614684172942127e-05  2.9605547258531634e-06  -6.6755735970717254e-07  1.2129808153644281e-07  -1.6519253830066856e-08  1.1396664628813362e-09  1.9068605480678614e-10  -9.3002217111897499e-11  2.0990899926094129e-11  -3.0750744070672642e-12  2.0840258095745622e-13  3.9438873106543416e-14  -1.7269676410789749e-14  0.0000000000000000e+00  0.0000000000000000e+00  5.4058942635425240e-09  1.3331716183988568e-08  -3.0517744254926997e-07  2.4650555945960003e-06  -1.4293152464254529e-05  6.5796804804697540e-05  -2.4318413413274457e-04  6.8956348186850931e-04  -1.2546450029101439e-03  1.2437652502139281e-05  8.8023164087974622e-03  -2.6735349216678531e-02  7.9943643968654696e-03  1.5107522348633048e-01  -1.7501679299873751e-01  -8.7724343982544495e-01  -8.0337551275328678e-01  -9.8332699489492678e-02  1.3370853732359392e-01  -4.8485633077013923e-03  -1.8972175941097836e-02  7.6465206635906915e-03  -6.7200425127712533e-04  -6.9391601833179955e-04  4.5210969375332282e-04  -1.6937552017761876e-04  4.7503614024366497e-05  -1.0614684172942084e-05  1.8844768255591070e-06  -2.4408878183961070e-07  1.3496528811882413e-08  3.7758761385840063e-09  -1.5251231941069773e-09  3.1781523475671441e-10  -4.1988196869364447e-11  1.7896381181180653e-12  8.2050122974793865e-13  -2.8355316196374710e-13  4.8143344845763040e-14  0.0000000000000000e+00  0.0000000000000000e+00  5.4767358422879753e-09  -3.1952746164390977e-08  1.0027260348549821e-07  1.1373220089456312e-07  -4.2695492514151762e-06  3.6654230502574315e-05  -2.1801763224730151e-04  1.0119745235169695e-03  -3.7041312488385247e-03  1.0070657268044219e-02  -1.5725911195169050e-02  -1.3155291124968240e-02  1.5107522348633048e-01  -2.9684047632274113e-01  -4.3513736835157002e-01  2.0693551673347090e+00  3.9261388211533474e+00  1.6943905145936629e+00  -4.8899898782331341e-01  -2.0327227518805707e-01  1.2849684083327415e-01  -1.9185603804867109e-02  -8.8684601065199421e-03  6.9587000359582190e-03  -2.7149821176472660e-03  7.6657425324732492e-04  -1.6937552017761958e-04  2.9229439305483010e-05  -3.5541910234760820e-06  1.3455279955109362e-07  7.2171196170822128e-08  -2.4775703405700136e-08  4.7255842472247994e-09  -5.4557534005775470e-10  3.8029881837336503e-12  1.5903183797287766e-11  -4.4540865470625598e-12  7.1101792066214354e-13  -4.3585557050837805e-14  0.0000000000000000e+00  0.0000000000000000e+00  -5.1984298756661446e-10  -7.2629293130398249e-09  8.1681329849757168e-08  -4.8953489128497722e-07  1.7370796393546408e-06  1.7905264185294220e-07  -5.8408753880899148e-05  5.4384631452306293e-04  -3.3420230376376846e-03  1.5688334922540265e-02  -5.6760385704624203e-02  1.4574156092010063e-01  -1.7501679299873782e-01  -4.3513736835156985e-01  2.3597499117368712e+00  -1.3265649046323211e+00  -1.3738014146183364e+01  -1.2696411487934974e+01  -4.8941821308832134e-01  1.9896601982365165e+00  -4.6526241647329836e-01  -9.6060405326835158e-02  1.0611001004528005e-01  -4.3786313776029810e-02  1.2466521889185797e-02  -2.7149821176472629e-03  4.5210969375332401e-04  -5.0600786655934657e-05  7.3304399515047121e-07  1.3442656986443321e-06  -3.9755233562627828e-07  6.8451410623111596e-08  -6.5195691333480790e-09  -3.3145979058326481e-10  2.8977387606591271e-10  -6.7659639689163298e-11  9.1861789663062588e-12  -3.5288390667921918e-13  -1.9184500662659248e-13  0.0000000000000000e+00  0.0000000000000000e+00  -1.0497217868651376e-09  5.9322768837961526e-09  -1.4514395500632170e-08  -6.9228568281367072e-08  1.0883142674154938e-06  -7.3576938773161961e-06  2.9727630571072908e-05  -2.4255961275498723e-05  -7.6998998023504808e-04  8.0358882590755749e-03  -5.1572491158420088e-02  2.4599535455987603e-01  -8.7724343982544473e-01  2.0693551673347104e+00  -1.3265649046323225e+00  -1.0727126573918159e+01  2.7988669156500418e+01  6.4652214769773536e+01  2.3220301747666070e+01  -1.0362965976533109e+01  -5.1243011053986842e-01  1.5863017364976486e+00  -7.1233197470986387e-01  2.0500808162942369e-01  -4.3786313776029817e-02  6.9587000359582155e-03  -6.9391601833180237e-04  -1.3477369489424417e-05  2.4515371174343456e-05  -6.2691879735736551e-06  9.5245415683618491e-07  -6.5754693924487275e-08  -1.1329596157145296e-08  5.0050057468608861e-09  -9.7979642389055844e-10  1.0601869853424463e-10  2.0185274711070684e-12  -3.7879588794379331e-12  8.7386484506263763e-13  0.0000000000000000e+00  0.0000000000000000e+00  1.7586874037268194e-10  1.0036437781105013e-09  -1.4616990803511984e-08  9.2436023557694697e-08  -3.1440246602974278e-07  -3.4683051119336581e-07  1.3563284929747015e-05  -1.0794680135597099e-04  5.0208718828892744e-04  -8.4805319048235090e-04  -9.4604796835055707e-03  1.1775924485909406e-01  -8.0337551275328634e-01  3.9261388211533466e+00  -1.3738014146183369e+01  2.7988669156500439e+01  1.1565782472018244e+01  -2.2016436115918995e+02  -2.0573129255416205e+02  1.7961682907008029e+01  2.2531331689371392e+01  -1.1744310803609258e+01  3.4302750844679331e+00  -7.1233197470986509e-01  1.0611001004528034e-01  -8.8684601065199958e-03  -6.7200425127711763e-04  4.3817988416124017e-04  -9.6261289315458491e-05  1.2383273768759532e-05  -3.8511745150566545e-07  -2.6920105749060490e-07  8.1807396046939846e-08  -1.3216276715268758e-08  9.7034917684067684e-10  1.4780083144081635e-10  -6.7900707567725947e-11  1.3095526844202617e-11  -1.1698548202283885e-12  0.0000000000000000e+00  0.0000000000000000e+00  1.6156656481378122e-10  -1.1883405904581848e-09  4.3136920615361719e-09  2.7819118538893513e-09  -1.6759193880954845e-07  1.3470336546422264e-06  -5.9867871127240902e-06  6.3665948638156595e-06  1.4807852012468827e-04  -1.5179435226625141e-03  8.3273098320265082e-03  -2.1593782627973002e-02  -9.8332699489492317e-02  1.6943905145936604e+00  -1.2696411487934965e+01  6.4652214769773536e+01  -2.2016436115918987e+02  3.1276538033038372e+02  1.1416626986702681e+03  2.6062338316091711e+02  -1.9819444376856083e+02  5.9186032760011088e+01  -1.1744310803609213e+01  1.5863017364976435e+00  -9.6060405326834464e-02  -1.9185603804867130e-02  7.6465206635907036e-03  -1.4126887083553970e-03  1.4085379714928465e-04  5.1421036340113889e-06  -5.4607202658211487e-06  1.2484743725728842e-06  -1.5797101948766532e-07  3.2598414723785445e-09  3.9018949848607878e-09  -1.1015567059538445e-09  1.6555218747501262e-10  -9.0794292539668393e-12  -2.6833397519088913e-12  0.0000000000000000e+00  0.0000000000000000e+00  -6.2826937036110350e-11  5.4252446847621438e-11  1.7296154674625711e-09  -1.6448449244272196e-08  8.2263642519261240e-08  -1.5091979873932282e-07  -1.4768780197583568e-06  1.7779933275471634e-05  -1.0289396447981964e-04  2.8071845106278234e-04  1.1169151660559830e-03  -1.9603451033477402e-02  1.3370853732359397e-01  -4.8899898782331391e-01  -4.8941821308831623e-01  2.3220301747666046e+01  -2.0573129255416191e+02  1.1416626986702677e+03  -3.7133966848654622e+03  -3.5214443171923813e+03  1.0939301356115022e+03  -1.9819444376856165e+02  2.2531331689371466e+01  -5.1243011053988829e-01  -4.6526241647329464e-01  1.2849684083327334e-01  -1.8972175941097777e-02  1.1069521697744246e-03  2.6512782717678289e-04  -9.8685457860603687e-05  1.7173449067438057e-05  -1.4472080757752565e-06  -1.4049830262294144e-07  7.8731688509935870e-08  -1.586052453100329