<?xml version="1.0"?>
<VTKFile type="UnstructuredGrid"  version="0.1"  >
<UnstructuredGrid>
<Piece  NumberOfPoints="1681" NumberOfCells="3200">
<Points>
<DataArray  type="Float64"  NumberOfComponents="3"  format="ascii">-2 -2 0  -1.9 -2 0  -1.8 -2 0  -1.7 -2 0  -1.6 -2 0  -1.5 -2 0  -1.4 -2 0  -1.3 -2 0  -1.2 -2 0  -1.1 -2 0  -1 -2 0  -0.8999999999999999 -2 0  -0.8 -2 0  -0.7 -2 0  -0.6000000000000001 -2 0  -0.5 -2 0  -0.3999999999999999 -2 0  -0.3 -2 0  -0.2 -2 0  -0.1000000000000001 -2 0  0 -2 0  0.1000000000000001 -2 0  0.2000000000000002 -2 0  0.2999999999999998 -2 0  0.3999999999999999 -2 0  0.5 -2 0  0.6000000000000001 -2 0  0.7000000000000002 -2 0  0.7999999999999998 -2 0  0.8999999999999999 -2 0  1 -2 0  1.1 -2 0  1.2 -2 0  1.3 -2 0  1.4 -2 0  1.5 -2 0  1.6 -2 0  1.7 -2 0  1.8 -2 0  1.9 -2 0  2 -2 0  -2 -1.9 0  -1.9 -1.9 0  -1.8 -1.9 0  -1.7 -1.9 0  -1.6 -1.9 0  -1.5 -1.9 0  -1.4 -1.9 0  -1.3 -1.9 0  -1.2 -1.9 0  -1.1 -1.9 0  -1 -1.9 0  -0.8999999999999999 -1.9 0  -0.8 -1.9 0  -0.7 -1.9 0  -0.6000000000000001 -1.9 0  -0.5 -1.9 0  -0.3999999999999999 -1.9 0  -0.3 -1.9 0  -0.2 -1.9 0  -0.1000000000000001 -1.9 0  0 -1.9 0  0.1000000000000001 -1.9 0  0.2000000000000002 -1.9 0  0.2999999999999998 -1.9 0  0.3999999999999999 -1.9 0  0.5 -1.9 0  0.6000000000000001 -1.9 0  0.7000000000000002 -1.9 0  0.7999999999999998 -1.9 0  0.8999999999999999 -1.9 0  1 -1.9 0  1.1 -1.9 0  1.2 -1.9 0  1.3 -1.9 0  1.4 -1.9 0  1.5 -1.9 0  1.6 -1.9 0  1.7 -1.9 0  1.8 -1.9 0  1.9 -1.9 0  2 -1.9 0  -2 -1.8 0  -1.9 -1.8 0  -1.8 -1.8 0  -1.7 -1.8 0  -1.6 -1.8 0  -1.5 -1.8 0  -1.4 -1.8 0  -1.3 -1.8 0  -1.2 -1.8 0  -1.1 -1.8 0  -1 -1.8 0  -0.8999999999999999 -1.8 0  -0.8 -1.8 0  -0.7 -1.8 0  -0.6000000000000001 -1.8 0  -0.5 -1.8 0  -0.3999999999999999 -1.8 0  -0.3 -1.8 0  -0.2 -1.8 0  -0.1000000000000001 -1.8 0  0 -1.8 0  0.1000000000000001 -1.8 0  0.2000000000000002 -1.8 0  0.2999999999999998 -1.8 0  0.3999999999999999 -1.8 0  0.5 -1.8 0  0.6000000000000001 -1.8 0  0.7000000000000002 -1.8 0  0.7999999999999998 -1.8 0  0.8999999999999999 -1.8 0  1 -1.8 0  1.1 -1.8 0  1.2 -1.8 0  1.3 -1.8 0  1.4 -1.8 0  1.5 -1.8 0  1.6 -1.8 0  1.7 -1.8 0  1.8 -1.8 0  1.9 -1.8 0  2 -1.8 0  -2 -1.7 0  -1.9 -1.7 0  -1.8 -1.7 0  -1.7 -1.7 0  -1.6 -1.7 0  -1.5 -1.7 0  -1.4 -1.7 0  -1.3 -1.7 0  -1.2 -1.7 0  -1.1 -1.7 0  -1 -1.7 0  -0.8999999999999999 -1.7 0  -0.8 -1.7 0  -0.7 -1.7 0  -0.6000000000000001 -1.7 0  -0.5 -1.7 0  -0.3999999999999999 -1.7 0  -0.3 -1.7 0  -0.2 -1.7 0  -0.1000000000000001 -1.7 0  0 -1.7 0  0.1000000000000001 -1.7 0  0.2000000000000002 -1.7 0  0.2999999999999998 -1.7 0  0.3999999999999999 -1.7 0  0.5 -1.7 0  0.6000000000000001 -1.7 0  0.7000000000000002 -1.7 0  0.7999999999999998 -1.7 0  0.8999999999999999 -1.7 0  1 -1.7 0  1.1 -1.7 0  1.2 -1.7 0  1.3 -1.7 0  1.4 -1.7 0  1.5 -1.7 0  1.6 -1.7 0  1.7 -1.7 0  1.8 -1.7 0  1.9 -1.7 0  2 -1.7 0  -2 -1.6 0  -1.9 -1.6 0  -1.8 -1.6 0  -1.7 -1.6 0  -1.6 -1.6 0  -1.5 -1.6 0  -1.4 -1.6 0  -1.3 -1.6 0  -1.2 -1.6 0  -1.1 -1.6 0  -1 -1.6 0  -0.8999999999999999 -1.6 0  -0.8 -1.6 0  -0.7 -1.6 0  -0.6000000000000001 -1.6 0  -0.5 -1.6 0  -0.3999999999999999 -1.6 0  -0.3 -1.6 0  -0.2 -1.6 0  -0.1000000000000001 -1.6 0  0 -1.6 0  0.1000000000000001 -1.6 0  0.2000000000000002 -1.6 0  0.2999999999999998 -1.6 0  0.3999999999999999 -1.6 0  0.5 -1.6 0  0.6000000000000001 -1.6 0  0.7000000000000002 -1.6 0  0.7999999999999998 -1.6 0  0.8999999999999999 -1.6 0  1 -1.6 0  1.1 -1.6 0  1.2 -1.6 0  1.3 -1.6 0  1.4 -1.6 0  1.5 -1.6 0  1.6 -1.6 0  1.7 -1.6 0  1.8 -1.6 0  1.9 -1.6 0  2 -1.6 0  -2 -1.5 0  -1.9 -1.5 0  -1.8 -1.5 0  -1.7 -1.5 0  -1.6 -1.5 0  -1.5 -1.5 0  -1.4 -1.5 0  -1.3 -1.5 0  -1.2 -1.5 0  -1.1 -1.5 0  -1 -1.5 0  -0.8999999999999999 -1.5 0  -0.8 -1.5 0  -0.7 -1.5 0  -0.6000000000000001 -1.5 0  -0.5 -1.5 0  -0.3999999999999999 -1.5 0  -0.3 -1.5 0  -0.2 -1.5 0  -0.1000000000000001 -1.5 0  0 -1.5 0  0.1000000000000001 -1.5 0  0.2000000000000002 -1.5 0  0.2999999999999998 -1.5 0  0.3999999999999999 -1.5 0  0.5 -1.5 0  0.6000000000000001 -1.5 0  0.7000000000000002 -1.5 0  0.7999999999999998 -1.5 0  0.8999999999999999 -1.5 0  1 -1.5 0  1.1 -1.5 0  1.2 -1.5 0  1.3 -1.5 0  1.4 -1.5 0  1.5 -1.5 0  1.6 -1.5 0  1.7 -1.5 0  1.8 -1.5 0  1.9 -1.5 0  2 -1.5 0  -2 -1.4 0  -1.9 -1.4 0  -1.8 -1.4 0  -1.7 -1.4 0  -1.6 -1.4 0  -1.5 -1.4 0  -1.4 -1.4 0  -1.3 -1.4 0  -1.2 -1.4 0  -1.1 -1.4 0  -1 -1.4 0  -0.8999999999999999 -1.4 0  -0.8 -1.4 0  -0.7 -1.4 0  -0.6000000000000001 -1.4 0  -0.5 -1.4 0  -0.3999999999999999 -1.4 0  -0.3 -1.4 0  -0.2 -1.4 0  -0.1000000000000001 -1.4 0  0 -1.4 0  0.1000000000000001 -1.4 0  0.2000000000000002 -1.4 0  0.2999999999999998 -1.4 0  0.3999999999999999 -1.4 0  0.5 -1.4 0  0.6000000000000001 -1.4 0  0.7000000000000002 -1.4 0  0.7999999999999998 -1.4 0  0.8999999999999999 -1.4 0  1 -1.4 0  1.1 -1.4 0  1.2 -1.4 0  1.3 -1.4 0  1.4 -1.4 0  1.5 -1.4 0  1.6 -1.4 0  1.7 -1.4 0  1.8 -1.4 0  1.9 -1.4 0  2 -1.4 0  -2 -1.3 0  -1.9 -1.3 0  -1.8 -1.3 0  -1.7 -1.3 0  -1.6 -1.3 0  -1.5 -1.3 0  -1.4 -1.3 0  -1.3 -1.3 0  -1.2 -1.3 0  -1.1 -1.3 0  -1 -1.3 0  -0.8999999999999999 -1.3 0  -0.8 -1.3 0  -0.7 -1.3 0  -0.6000000000000001 -1.3 0  -0.5 -1.3 0  -0.3999999999999999 -1.3 0  -0.3 -1.3 0  -0.2 -1.3 0  -0.1000000000000001 -1.3 0  0 -1.3 0  0.1000000000000001 -1.3 0  0.2000000000000002 -1.3 0  0.2999999999999998 -1.3 0  0.3999999999999999 -1.3 0  0.5 -1.3 0  0.6000000000000001 -1.3 0  0.7000000000000002 -1.3 0  0.7999999999999998 -1.3 0  0.8999999999999999 -1.3 0  1 -1.3 0  1.1 -1.3 0  1.2 -1.3 0  1.3 -1.3 0  1.4 -1.3 0  1.5 -1.3 0  1.6 -1.3 0  1.7 -1.3 0  1.8 -1.3 0  1.9 -1.3 0  2 -1.3 0  -2 -1.2 0  -1.9 -1.2 0  -1.8 -1.2 0  -1.7 -1.2 0  -1.6 -1.2 0  -1.5 -1.2 0  -1.4 -1.2 0  -1.3 -1.2 0  -1.2 -1.2 0  -1.1 -1.2 0  -1 -1.2 0  -0.8999999999999999 -1.2 0  -0.8 -1.2 0  -0.7 -1.2 0  -0.6000000000000001 -1.2 0  -0.5 -1.2 0  -0.3999999999999999 -1.2 0  -0.3 -1.2 0  -0.2 -1.2 0  -0.1000000000000001 -1.2 0  0 -1.2 0  0.1000000000000001 -1.2 0  0.2000000000000002 -1.2 0  0.2999999999999998 -1.2 0  0.3999999999999999 -1.2 0  0.5 -1.2 0  0.6000000000000001 -1.2 0  0.7000000000000002 -1.2 0  0.7999999999999998 -1.2 0  0.8999999999999999 -1.2 0  1 -1.2 0  1.1 -1.2 0  1.2 -1.2 0  1.3 -1.2 0  1.4 -1.2 0  1.5 -1.2 0  1.6 -1.2 0  1.7 -1.2 0  1.8 -1.2 0  1.9 -1.2 0  2 -1.2 0  -2 -1.1 0  -1.9 -1.1 0  -1.8 -1.1 0  -1.7 -1.1 0  -1.6 -1.1 0  -1.5 -1.1 0  -1.4 -1.1 0  -1.3 -1.1 0  -1.2 -1.1 0  -1.1 -1.1 0  -1 -1.1 0  -0.8999999999999999 -1.1 0  -0.8 -1.1 0  -0.7 -1.1 0  -0.6000000000000001 -1.1 0  -0.5 -1.1 0  -0.3999999999999999 -1.1 0  -0.3 -1.1 0  -0.2 -1.1 0  -0.1000000000000001 -1.1 0  0 -1.1 0  0.1000000000000001 -1.1 0  0.2000000000000002 -1.1 0  0.2999999999999998 -1.1 0  0.3999999999999999 -1.1 0  0.5 -1.1 0  0.6000000000000001 -1.1 0  0.7000000000000002 -1.1 0  0.7999999999999998 -1.1 0  0.8999999999999999 -1.1 0  1 -1.1 0  1.1 -1.1 0  1.2 -1.1 0  1.3 -1.1 0  1.4 -1.1 0  1.5 -1.1 0  1.6 -1.1 0  1.7 -1.1 0  1.8 -1.1 0  1.9 -1.1 0  2 -1.1 0  -2 -1 0  -1.9 -1 0  -1.8 -1 0  -1.7 -1 0  -1.6 -1 0  -1.5 -1 0  -1.4 -1 0  -1.3 -1 0  -1.2 -1 0  -1.1 -1 0  -1 -1 0  -0.8999999999999999 -1 0  -0.8 -1 0  -0.7 -1 0  -0.6000000000000001 -1 0  -0.5 -1 0  -0.3999999999999999 -1 0  -0.3 -1 0  -0.2 -1 0  -0.1000000000000001 -1 0  0 -1 0  0.1000000000000001 -1 0  0.2000000000000002 -1 0  0.2999999999999998 -1 0  0.3999999999999999 -1 0  0.5 -1 0  0.6000000000000001 -1 0  0.7000000000000002 -1 0  0.7999999999999998 -1 0  0.8999999999999999 -1 0  1 -1 0  1.1 -1 0  1.2 -1 0  1.3 -1 0  1.4 -1 0  1.5 -1 0  1.6 -1 0  1.7 -1 0  1.8 -1 0  1.9 -1 0  2 -1 0  -2 -0.8999999999999999 0  -1.9 -0.8999999999999999 0  -1.8 -0.8999999999999999 0  -1.7 -0.8999999999999999 0  -1.6 -0.8999999999999999 0  -1.5 -0.8999999999999999 0  -1.4 -0.8999999999999999 0  -1.3 -0.8999999999999999 0  -1.2 -0.8999999999999999 0  -1.1 -0.8999999999999999 0  -1 -0.8999999999999999 0  -0.8999999999999999 -0.8999999999999999 0  -0.8 -0.8999999999999999 0  -0.7 -0.8999999999999999 0  -0.6000000000000001 -0.8999999999999999 0  -0.5 -0.8999999999999999 0  -0.3999999999999999 -0.8999999999999999 0  -0.3 -0.8999999999999999 0  -0.2 -0.8999999999999999 0  -0.1000000000000001 -0.8999999999999999 0  0 -0.8999999999999999 0  0.1000000000000001 -0.8999999999999999 0  0.2000000000000002 -0.8999999999999999 0  0.2999999999999998 -0.8999999999999999 0  0.3999999999999999 -0.8999999999999999 0  0.5 -0.8999999999999999 0  0.6000000000000001 -0.8999999999999999 0  0.7000000000000002 -0.8999999999999999 0  0.7999999999999998 -0.8999999999999999 0  0.8999999999999999 -0.8999999999999999 0  1 -0.8999999999999999 0  1.1 -0.8999999999999999 0  1.2 -0.8999999999999999 0  1.3 -0.8999999999999999 0  1.4 -0.8999999999999999 0  1.5 -0.8999999999999999 0  1.6 -0.8999999999999999 0  1.7 -0.8999999999999999 0  1.8 -0.8999999999999999 0  1.9 -0.8999999999999999 0  2 -0.8999999999999999 0  -2 -0.8 0  -1.9 -0.8 0  -1.8 -0.8 0  -1.7 -0.8 0  -1.6 -0.8 0  -1.5 -0.8 0  -1.4 -0.8 0  -1.3 -0.8 0  -1.2 -0.8 0  -1.1 -0.8 0  -1 -0.8 0  -0.8999999999999999 -0.8 0  -0.8 -0.8 0  -0.7 -0.8 0  -0.6000000000000001 -0.8 0  -0.5 -0.8 0  -0.3999999999999999 -0.8 0  -0.3 -0.8 0  -0.2 -0.8 0  -0.1000000000000001 -0.8 0  0 -0.8 0  0.1000000000000001 -0.8 0  0.2000000000000002 -0.8 0  0.2999999999999998 -0.8 0  0.3999999999999999 -0.8 0  0.5 -0.8 0  0.6000000000000001 -0.8 0  0.7000000000000002 -0.8 0  0.7999999999999998 -0.8 0  0.8999999999999999 -0.8 0  1 -0.8 0  1.1 -0.8 0  1.2 -0.8 0  1.3 -0.8 0  1.4 -0.8 0  1.5 -0.8 0  1.6 -0.8 0  1.7 -0.8 0  1.8 -0.8 0  1.9 -0.8 0  2 -0.8 0  -2 -0.7 0  -1.9 -0.7 0  -1.8 -0.7 0  -1.7 -0.7 0  -1.6 -0.7 0  -1.5 -0.7 0  -1.4 -0.7 0  -1.3 -0.7 0  -1.2 -0.7 0  -1.1 -0.7 0  -1 -0.7 0  -0.8999999999999999 -0.7 0  -0.8 -0.7 0  -0.7 -0.7 0  -0.6000000000000001 -0.7 0  -0.5 -0.7 0  -0.3999999999999999 -0.7 0  -0.3 -0.7 0  -0.2 -0.7 0  -0.1000000000000001 -0.7 0  0 -0.7 0  0.1000000000000001 -0.7 0  0.2000000000000002 -0.7 0  0.2999999999999998 -0.7 0  0.3999999999999999 -0.7 0  0.5 -0.7 0  0.600000000000000
[...]
<PointData  Scalars="f_1726"> 
<DataArray  type="Float64"  Name="f_1726"  format="ascii">0.0000000000000000e+00  0.0000000000000000e+00  0.0000000000000000e+00  0.0000000000000000e+00  0.0000000000000000e+00  0.0000000000000000e+00  0.0000000000000000e+00  0.0000000000000000e+00  0.0000000000000000e+00  0.0000000000000000e+00  0.0000000000000000e+00  0.0000000000000000e+00  0.0000000000000000e+00  0.0000000000000000e+00  0.0000000000000000e+00  0.0000000000000000e+00  0.0000000000000000e+00  0.0000000000000000e+00  0.0000000000000000e+00  0.0000000000000000e+00  0.0000000000000000e+00  0.0000000000000000e+00  0.0000000000000000e+00  0.0000000000000000e+00  0.0000000000000000e+00  0.0000000000000000e+00  0.0000000000000000e+00  0.0000000000000000e+00  0.0000000000000000e+00  0.0000000000000000e+00  0.0000000000000000e+00  0.0000000000000000e+00  0.0000000000000000e+00  0.0000000000000000e+00  0.0000000000000000e+00  0.0000000000000000e+00  0.0000000000000000e+00  0.0000000000000000e+00  0.0000000000000000e+00  0.0000000000000000e+00  0.0000000000000000e+00  0.0000000000000000e+00  -1.6927966915540245e-11  -1.9727162369953930e-11  1.2963279519702526e-10  -3.1237828135408316e-11  -6.5654482878237204e-10  3.5372717714553829e-10  3.2303880626008995e-09  4.4444529714100738e-10  -1.3408754286549157e-08  -2.6755379291359904e-08  -2.3583631628522828e-08  -8.1286041317997848e-09  2.1998940821770326e-09  2.2287226093839432e-09  -2.1154677769439171e-10  -4.2717756476125239e-10  7.1568658638960827e-11  6.5748479804448552e-11  -2.5567020043132801e-11  -4.6710142650876572e-12  5.5664506304372911e-12  -1.0919679433068342e-12  -4.7606493404483126e-13  3.5561370747493630e-13  -7.8070097970523345e-14  -1.7736863569672342e-14  1.9591626150859758e-14  -7.0277843193167944e-15  8.2484866057463205e-16  5.2805187626535501e-16  -3.9356819877474837e-16  1.4749109065096842e-16  -3.2617074797699644e-17  2.7005252272772353e-19  3.8243225427778372e-18  -2.3004760426457003e-18  9.3599307135131622e-19  -3.1027266357100573e-19  9.8354406426103080e-20  0.0000000000000000e+00  0.0000000000000000e+00  -1.9727162369953937e-11  1.4186985252081715e-10  -1.2620720667411492e-10  -6.2149567534170360e-10  1.3051309858479376e-09  2.4392626273357956e-09  -7.0275230094503940e-09  -1.3727504924008583e-08  2.0468689795015165e-08  8.7728553106908499e-08  1.1452883908704141e-07  6.7076315572594764e-08  5.4252566011532400e-09  -1.3002965609298719e-08  -2.9556026137581490e-09  2.4141021215510700e-09  4.0842641391809998e-10  -4.8358759996289748e-10  2.2077686122831298e-11  7.5809665551646390e-11  -2.5548215952445816e-11  -3.6948156422611778e-12  5.3291408605304835e-12  -1.5414856296032549e-12  -1.4360384797656233e-13  2.8934419352876246e-13  -1.1539014501143085e-13  1.6049397070145562e-14  7.6381443090862852e-15  -6.1523333127705479e-15  2.3177437826975633e-15  -4.9485077062400663e-16  -9.2405119133660040e-18  6.5251485439401790e-17  -3.7017692628039198e-17  1.4471818701718058e-17  -4.5762569053800859e-18  1.2431178465788335e-18  -3.1027266357100611e-19  0.0000000000000000e+00  0.0000000000000000e+00  1.2963279519702528e-10  -1.2620720667411492e-10  -5.6820285456636593e-10  1.6827652729400565e-09  9.2838305063507990e-10  -9.9830808238853531e-09  6.1945084971931004e-10  4.9869964923512781e-08  1.8939032376299583e-08  -2.0285821332710425e-07  -4.3171240890341484e-07  -3.8268467922447174e-07  -1.2419000763772192e-07  4.0805294417223364e-08  3.3239694563148730e-08  -5.9065403819595782e-09  -5.9482908840340905e-09  1.7554293842752331e-09  7.0385594793697489e-10  -4.6325958255428953e-10  1.8870959716579239e-11  6.7370403445346367e-11  -2.7631758497619384e-11  8.2142683928307410e-13  3.7382567546841728e-12  -1.8125620218783582e-12  3.3389772565744139e-13  8.4808096904635567e-14  -8.8741398746635614e-14  3.5961242886534144e-14  -8.2243961553647567e-15  9.4550158033600652e-17  9.4802673110896266e-16  -5.6217521773402690e-16  2.2319645256868420e-16  -7.1263530514132296e-17  1.9311364410199060e-17  -4.5762569053800667e-18  9.3599307135131353e-19  0.0000000000000000e+00  0.0000000000000000e+00  -3.1237828135408271e-11  -6.2149567534170360e-10  1.6827652729400567e-09  3.1580896886942069e-10  -1.0225174948627569e-08  1.1643540133768185e-08  4.4629606094715909e-08  -8.1394599996964075e-08  -2.2487994927834324e-07  2.4449814943136710e-07  1.2991538495360391e-06  1.7510557871926363e-06  1.0031386021293551e-06  4.6282591464703203e-08  -1.9921309183196686e-07  -2.8172122919024443e-08  3.7616248356158756e-08  1.1320812295168707e-09  -6.6935911783356854e-09  1.3939525783657581e-09  6.8635648208559460e-10  -4.4827145343059029e-10  6.0146602685200318e-11  4.3143631032242603e-11  -2.7533657466855886e-11  6.4716988934409793e-12  7.2828178158011082e-13  -1.2513818547994121e-12  5.5683543884896656e-13  -1.3763767200148066e-13  5.8121754350885084e-15  1.3625496889119720e-14  -8.5750391432759153e-15  3.4732747496801564e-15  -1.1187040917876737e-15  3.0427194152420490e-16  -7.1263530514132654e-17  1.4471818701718076e-17  -2.3004760426457111e-18  0.0000000000000000e+00  0.0000000000000000e+00  -6.5654482878237266e-10  1.3051309858479378e-09  9.2838305063507928e-10  -1.0225174948627568e-08  1.5207726735919259e-08  3.3642710290144418e-08  -1.2850898746327330e-07  -7.1438729893328147e-08  6.9328003604053984e-07  4.7733238534424109e-07  -2.8235533370028511e-06  -6.5260428908296521e-06  -5.8165069438784363e-06  -1.7374657501341217e-06  7.0689344493066390e-07  4.4288252779610638e-07  -1.2794407191890787e-07  -6.8200467200055804e-08  3.3476662978209638e-08  3.6039924751307719e-09  -6.4543389779720115e-09  1.5878511987111106e-09  3.9487738895919631e-10  -3.9872188570010516e-10  1.1792162481349814e-10  1.5476017088249579e-12  -1.7086828064163654e-11  8.5421124194767899e-12  -2.2901173789912244e-12  1.6220097274228043e-13  1.9309841638021332e-13  -1.3056774630838881e-13  5.4075333256738577e-14  -1.7573778279032944e-14  4.7903376307241302e-15  -1.1187040917876719e-15  2.2319645256868474e-16  -3.7017692628039143e-17  3.8243225427778357e-18  0.0000000000000000e+00  0.0000000000000000e+00  3.5372717714553927e-10  2.4392626273357985e-09  -9.9830808238853564e-09  1.1643540133768193e-08  3.3642710290144399e-08  -1.3881711515523794e-07  3.7592378649302659e-08  7.3173827695485395e-07  -7.8608586291664851e-07  -3.5745592285293795e-06  2.6001300996300997e-06  1.9120592032655779e-05  2.6775588729543283e-05  1.4916204579355817e-05  7.2864326974899877e-08  -2.9941664468611349e-06  -1.4114045741485487e-07  5.4816672707150663e-07  -6.1415846471332485e-08  -7.7284523652804451e-08  3.2039356892510372e-08  1.3265716298382321e-09  -5.3782792479705735e-09  2.0367550653064429e-09  -1.3488544100859449e-10  -2.2201839389812220e-10  1.2933287631653352e-10  -3.7846657200382377e-11  3.7147251746084801e-12  2.6803024287194863e-12  -1.9817818123155083e-12  8.4188168188770698e-13  -2.7633806858911459e-13  7.5496456929857651e-14  -1.7573778279032941e-14  3.4732747496801517e-15  -5.6217521773402847e-16  6.5251485439401814e-17  2.7005252272768308e-19  0.0000000000000000e+00  0.0000000000000000e+00  3.2303880626009016e-09  -7.0275230094504015e-09  6.1945084971930497e-10  4.4629606094715916e-08  -1.2850898746327335e-07  3.7592378649302805e-08  6.9615694547161121e-07  -1.3894601138375913e-06  -2.2066187093421227e-06  9.1077590470730418e-06  1.0125860843502476e-05  -3.8553018696387729e-05  -9.8962227427547883e-05  -8.8720880507343257e-05  -2.3769068676848814e-05  1.2097469055488477e-05  5.5194920206002208e-06  -2.4362847104421263e-06  -6.0100606067619837e-07  5.3781322605551864e-07  -5.7174885306318170e-08  -6.4285295639255733e-08  3.3290996395486667e-08  -4.6105066663339681e-09  -2.6530969448517943e-09  1.9230462738437789e-09  -6.2063912569171445e-10  7.7598469942740637e-11  3.6095831792745543e-11  -2.9956409340909378e-11  1.3106093570925840e-11  -4.3504310963472018e-12  1.1915308523204280e-12  -2.7633806858911499e-13  5.4075333256738678e-14  -8.5750391432759310e-15  9.4802673110896916e-16  -9.2405119133667698e-18  -3.2617074797699508e-17  0.0000000000000000e+00  0.0000000000000000e+00  4.4444529714100862e-10  -1.3727504924008586e-08  4.9869964923512814e-08  -8.1394599996964102e-08  -7.1438729893328279e-08  7.3173827695485405e-07  -1.3894601138375922e-06  -1.4990399848657364e-06  1.0675334085664705e-05  -4.3065525170850667e-06  -5.4990385982059838e-05  2.0984740932086319e-05  2.8061344693298637e-04  4.1181655745890213e-04  2.2131477801955114e-04  -9.8708082448724535e-06  -4.3928260139021635e-05  2.5908450446362422e-06  7.2354300856378429e-06  -1.9872861078696798e-06  -5.8893206680858892e-07  5.0805865784229275e-07  -1.0954964792472620e-07  -2.6758451976278729e-08  2.7855863582461747e-08  -1.0082313979307552e-08  1.5365686355213811e-09  4.6377997517570869e-10  -4.5038383572017319e-10  2.0399640507420126e-10  -6.8583773888837503e-11  1.8836629171471719e-11  -4.3504310963471832e-12  8.4188168188770426e-13  -1.3056774630838835e-13  1.3625496889119648e-14  9.4550158033607776e-17  -4.9485077062400555e-16  1.4749109065096805e-16  0.0000000000000000e+00  0.0000000000000000e+00  -1.3408754286549154e-08  2.0468689795015151e-08  1.8939032376299603e-08  -2.2487994927834346e-07  6.9328003604054026e-07  -7.8608586291664851e-07  -2.2066187093421240e-06  1.0675334085664713e-05  -9.5366277434378921e-06  -4.6921210704341494e-05  1.0822736856095642e-04  1.9645292787825742e-04  -5.1056975637668307e-04  -1.5073725116826471e-03  -1.3600148920006043e-03  -3.1334249585279099e-04  2.0432116878473788e-04  6.0259606318375268e-05  -4.1872040501686858e-05  -1.2311444168329103e-06  6.9886252176283432e-06  -2.2222051730127458e-06  -1.5672108280475856e-07  3.8759512506554066e-07  -1.6178137933589445e-07  2.9369606510910370e-08  5.4923260455589295e-09  -6.7224046514979394e-09  3.1741684179177399e-09  -1.0829488063968597e-09  2.9836280973951793e-10  -6.8583773888837813e-11  1.3106093570925862e-11  -1.9817818123155184e-12  1.9309841638021537e-13  5.8121754350880776e-15  -8.2243961553647125e-15  2.3177437826975499e-15  -3.9356819877474709e-16  0.0000000000000000e+00  0.0000000000000000e+00  -2.6755379291359884e-08  8.7728553106908433e-08  -2.0285821332710415e-07  2.4449814943136694e-07  4.7733238534424205e-07  -3.5745592285293845e-06  9.1077590470730486e-06  -4.3065525170850735e-06  -4.6921210704341541e-05  1.3018020241493844e-04  5.8655016430994321e-05  -8.0664540027013262e-04  5.0614231062849327e-06  4.0981895404453754e-03  6.3842675185236163e-03  3.2701533112472888e-03  -3.4510981979342533e-04  -6.1771740433486577e-04  1.1423657754752900e-04  7.8580587377019348e-05  -4.0159415660158886e-05  2.0925461732929806e-06  5.0392940286664855e-06  -2.5512059338878862e-06  5.4704032508829309e-07  5.4755400872162322e-08  -9.9330368023676955e-08  4.9361478183367811e-08  -1.7132452211713542e-08  4.7368531273363878e-09  -1.0829488063968585e-09  2.0399640507420173e-10  -2.9956409340909365e-11  2.6803024287194903e-12  1.6220097274228043e-13  -1.3763767200148046e-13  3.5961242886534238e-14  -6.1523333127705423e-15  5.2805187626535609e-16  0.0000000000000000e+00  0.0000000000000000e+00  -2.3583631628522789e-08  1.1452883908704130e-07  -4.3171240890341447e-07  1.2991538495360374e-06  -2.8235533370028498e-06  2.6001300996300971e-06  1.0125860843502490e-05  -5.4990385982059865e-05  1.0822736856095649e-04  5.8655016430994491e-05  -8.0992979414569173e-04  1.0247751048833875e-03  3.5820463429622950e-03  -6.3995589422467499e-03  -2.3098275794218481e-02  -2.0987095302191255e-02  -3.8498816764983754e-03  3.3887454557657306e-03  4.5452148050157933e-04  -6.3669470526003704e-04  1.0789207291014334e-04  5.7319551529263840e-05  -3.9172915781197305e-05  9.9763734434328908e-06  2.9830756361301424e-07  -1.4463552963294497e-06  7.6687578676956602e-07  -2.7165819632054316e-07  7.5413546043438269e-08  -1.7132452211713549e-08  3.1741684179177391e-09  -4.5038383572017505e-10  3.6095831792745724e-11  3.7147251746084365e-12  -2.2901173789912139e-12  5.5683543884896393e-13  -8.8741398746635462e-14  7.6381443090862237e-15  8.2484866057463895e-16  0.0000000000000000e+00  0.0000000000000000e+00  -8.1286041317997633e-09  6.7076315572594619e-08  -3.8268467922447116e-07  1.7510557871926351e-06  -6.5260428908296478e-06  1.9120592032655779e-05  -3.8553018696387722e-05  2.0984740932086272e-05  1.9645292787825766e-04  -8.0664540027013348e-04  1.0247751048833873e-03  2.7247357024068040e-03  -1.0879779303741998e-02  -5.3534615522000447e-03  5.9308595722564340e-02  1.0010623559342147e-01  4.7921371239953790e-02  -8.7874516776000038e-03  -7.9774989698991553e-03  2.7939212362557493e-03  4.5046710291074668e-04  -5.7488463110131661e-04  1.7831450026616909e-04  -5.4845292818713068e-06  -2.0591666372132662e-05  1.1894733307518925e-05  -4.3195778085625036e-06  1.2047788032571829e-06  -2.7165819632054364e-07  4.9361478183367937e-08  -6.7224046514979601e-09  4.6377997517571376e-10  7.7598469942739939e-11  -3.7846657200382319e-11  8.5421124194767769e-12  -1.2513818547994101e-12  8.4808096904635769e-14  1.6049397070145518e-14  -7.0277843193167873e-15  0.0000000000000000e+00  0.0000000000000000e+00  2.1998940821770346e-09  5.4252566011531937e-09  -1.2419000763772160e-07  1.0031386021293530e-06  -5.8165069438784287e-06  2.6775588729543262e-05  -9.8962227427547842e-05  2.8061344693298637e-04  -5.1056975637668296e-04  5.0614231062845261e-06  3.5820463429622985e-03  -1.0879779303741999e-02  3.2532554412017661e-03  6.1479095577677910e-02  -7.1221964106123831e-02  -3.5698860499649920e-01  -3.2692852470143319e-01  -4.0015862898078722e-02  5.4411833760500967e-02  -1.9730918156514710e-03  -7.7206056101238362e-03  3.1117026595437521e-03  -2.7346783039252232e-04  -2.8238468379801826e-04  1.8398314715298224e-04  -6.8926284225956624e-05  1.9331291786263010e-05  -4.3195778085624876e-06  7.6687578676956390e-07  -9.9330368023676611e-08  5.4923260455588882e-09  1.5365686355213873e-09  -6.2063912569171270e-10  1.2933287631653313e-10  -1.7086828064163560e-11  7.2828178158009779e-13  3.3389772565744372e-13  -1.1539014501143080e-13  1.9591626150859752e-14  0.0000000000000000e+00  0.0000000000000000e+00  2.2287226093839419e-09  -1.3002965609298719e-08  4.0805294417223424e-08  4.6282591464702845e-08  -1.7374657501341181e-06  1.4916204579355793e-05  -8.8720880507343135e-05  4.1181655745890176e-04  -1.5073725116826467e-03  4.0981895404453754e-03  -6.3995589422467473e-03  -5.3534615522000673e-03  6.1479095577677959e-02  -1.2079733257399738e-01  -1.7707636792426099e-01  8.4211084505358069e-01  1.5977170727717533e+00  6.8952137874573516e-01  -1.9899500934709799e-01  -8.2720351796860700e-02  5.2290967219607111e-02  -7.8074587137156220e-03  -3.6089630975452173e-03  2.8317984559908683e-03  -1.1048446015876675e-03  3.1195248760987993e-04  -6.8926284225957003e-05  1.1894733307518957e-05  -1.4463552963294599e-06  5.4755400872164201e-08  2.9369606510910002e-08  -1.0082313979307526e-08  1.9230462738437694e-09  -2.2201839389812127e-10  1.5476017088248704e-12  6.4716988934409704e-12  -1.8125620218783612e-12  2.8934419352876170e-13  -1.7736863569672273e-14  0.0000000000000000e+00  0.0000000000000000e+00  -2.1154677769439329e-10  -2.9556026137581411e-09  3.3239694563148697e-08  -1.9921309183196681e-07  7.0689344493066443e-07  7.2864326974891341e-08  -2.3769068676848749e-05  2.2131477801955087e-04  -1.3600148920006028e-03  6.3842675185236137e-03  -2.3098275794218477e-02  5.9308595722564347e-02  -7.1221964106123817e-02  -1.7707636792426121e-01  9.6028512826403212e-01  -5.3983710021956754e-01  -5.5905969572642675e+00  -5.1667234199452219e+00  -1.9916561038637642e-01  8.0967948728900807e-01  -1.8933556350920380e-01  -3.9091167327337001e-02  4.3180789667422836e-02  -1.7818560234493398e-02  5.0731713186299883e-03  -1.1048446015876658e-03  1.8398314715298270e-04  -2.0591666372132645e-05  2.9830756361301291e-07  5.4704032508829394e-07  -1.6178137933589437e-07  2.7855863582461830e-08  -2.6530969448517934e-09  -1.3488544100859426e-10  1.1792162481349804e-10  -2.7533657466855841e-11  3.7382567546841792e-12  -1.4360384797656192e-13  -7.8070097970523294e-14  0.0000000000000000e+00  0.0000000000000000e+00  -4.2717756476125233e-10  2.4141021215510725e-09  -5.9065403819596047e-09  -2.8172122919024301e-08  4.4288252779610579e-07  -2.9941664468611332e-06  1.2097469055488480e-05  -9.8708082448725382e-06  -3.1334249585279050e-04  3.2701533112472832e-03  -2.0987095302191238e-02  1.0010623559342140e-01  -3.5698860499649909e-01  8.4211084505358058e-01  -5.3983710021956632e-01  -4.3653355242028518e+00  1.1389809834173034e+01  2.6309805138227116e+01  9.4493532264504747e+00  -4.2171426990948619e+00  -2.0853015481794879e-01  6.4553534208075825e-01  -2.8987893941580872e-01  8.3426727122016361e-02  -1.7818560234493401e-02  2.8317984559908670e-03  -2.8238468379801962e-04  -5.4845292818711043e-06  9.9763734434328535e-06  -2.5512059338878786e-06  3.8759512506553843e-07  -2.6758451976278474e-08  -4.6105066663340152e-09  2.0367550653064503e-09  -3.9872188570010609e-10  4.3143631032242662e-11  8.2142683928307087e-13  -1.5414856296032531e-12  3.5561370747493655e-13  0.0000000000000000e+00  0.0000000000000000e+00  7.1568658638961137e-11  4.0842641391809869e-10  -5.9482908840340897e-09  3.7616248356158783e-08  -1.2794407191890816e-07  -1.4114045741485310e-07  5.5194920206002149e-06  -4.3928260139021622e-05  2.0432116878473804e-04  -3.4510981979342598e-04  -3.8498816764983672e-03  4.7921371239953749e-02  -3.2692852470143302e-01  1.5977170727717529e+00  -5.5905969572642675e+00  1.1389809834173029e+01  4.7066211759877445e+00  -8.9594478102684675e+01  -8.3721033180539820e+01  7.3093919353083470e+00  9.1689812694439770e+00  -4.7792721382562036e+00  1.3959284977977400e+00  -2.8987893941580917e-01  4.3180789667422947e-02  -3.6089630975452394e-03  -2.7346783039251923e-04  1.7831450026616836e-04  -3.9172915781197257e-05  5.0392940286664821e-06  -1.5672108280475880e-07  -1.0954964792472634e-07  3.3290996395486620e-08  -5.3782792479705702e-09  3.9487738895919492e-10  6.0146602685200615e-11  -2.7631758497619516e-11  5.3291408605304884e-12  -4.7606493404483227e-13  0.0000000000000000e+00  0.0000000000000000e+00  6.5748479804448578e-11  -4.8358759996289810e-10  1.7554293842752372e-09  1.1320812295168574e-09  -6.8200467200055790e-08  5.4816672707150716e-07  -2.4362847104421318e-06  2.5908450446362752e-06  6.0259606318375085e-05  -6.1771740433486577e-04  3.3887454557657323e-03  -8.7874516776000229e-03  -4.0015862898078569e-02  6.8952137874573427e-01  -5.1667234199452192e+00  2.6309805138227116e+01  -8.9594478102684661e+01  1.2727787036807027e+02  4.6459233055756386e+02  1.0605901823853712e+02  -8.0653960790033580e+01  2.4085377343463168e+01  -4.7792721382561876e+00  6.4553534208075658e-01  -3.9091167327336744e-02  -7.8074587137156254e-03  3.1117026595437569e-03  -5.7488463110131499e-04  5.7319551529263562e-05  2.0925461732930361e-06  -2.2222051730127509e-06  5.0805865784229497e-07  -6.4285295639255799e-08  1.3265716298382501e-09  1.5878511987111075e-09  -4.4827145343058894e-10  6.7370403445346341e-11  -3.6948156422611423e-12  -1.0919679433068387e-12  0.0000000000000000e+00  0.0000000000000000e+00  -2.5567020043132843e-11  2.2077686122831534e-11  7.0385594793697458e-10  -6.6935911783356871e-09  3.3476662978209665e-08  -6.1415846471332750e-08  -6.0100606067619742e-07  7.2354300856378446e-06  -4.1872040501686892e-05  1.1423657754752917e-04  4.5452148050157841e-04  -7.9774989698991553e-03  5.4411833760500974e-02  -1.9899500934709816e-01  -1.9916561038637434e-01  9.4493532264504676e+00  -8.3721033180539791e+01  4.6459233055756380e+02  -1.5111430215910448e+03  -1.4330292337295793e+03  4.4516786942662975e+02  -8.0653960790033949e+01  9.1689812694440054e+00  -2.0853015481795600e-01  -1.8933556350920236e-01  5.2290967219606792e-02  -7.7206056101238119e-03  4.5046710291073963e-04  1.0789207291014429e-04  -4.0159415660159002e-05  6.9886252176283474e-06  -5.8893206680859030e-07  -5.7174885306318236e-08  3.2039356892510418e-08  -6.454338977972018