<?xml version="1.0"?>
<VTKFile type="UnstructuredGrid"  version="0.1"  >
<UnstructuredGrid>
<Piece  NumberOfPoints="1681" NumberOfCells="3200">
<Points>
<DataArray  type="Float64"  NumberOfComponents="3"  format="ascii">-2 -2 0  -1.9 -2 0  -1.8 -2 0  -1.7 -2 0  -1.6 -2 0  -1.5 -2 0  -1.4 -2 0  -1.3 -2 0  -1.2 -2 0  -1.1 -2 0  -1 -2 0  -0.8999999999999999 -2 0  -0.8 -2 0  -0.7 -2 0  -0.6000000000000001 -2 0  -0.5 -2 0  -0.3999999999999999 -2 0  -0.3 -2 0  -0.2 -2 0  -0.1000000000000001 -2 0  0 -2 0  0.1000000000000001 -2 0  0.2000000000000002 -2 0  0.2999999999999998 -2 0  0.3999999999999999 -2 0  0.5 -2 0  0.6000000000000001 -2 0  0.7000000000000002 -2 0  0.7999999999999998 -2 0  0.8999999999999999 -2 0  1 -2 0  1.1 -2 0  1.2 -2 0  1.3 -2 0  1.4 -2 0  1.5 -2 0  1.6 -2 0  1.7 -2 0  1.8 -2 0  1.9 -2 0  2 -2 0  -2 -1.9 0  -1.9 -1.9 0  -1.8 -1.9 0  -1.7 -1.9 0  -1.6 -1.9 0  -1.5 -1.9 0  -1.4 -1.9 0  -1.3 -1.9 0  -1.2 -1.9 0  -1.1 -1.9 0  -1 -1.9 0  -0.8999999999999999 -1.9 0  -0.8 -1.9 0  -0.7 -1.9 0  -0.6000000000000001 -1.9 0  -0.5 -1.9 0  -0.3999999999999999 -1.9 0  -0.3 -1.9 0  -0.2 -1.9 0  -0.1000000000000001 -1.9 0  0 -1.9 0  0.1000000000000001 -1.9 0  0.2000000000000002 -1.9 0  0.2999999999999998 -1.9 0  0.3999999999999999 -1.9 0  0.5 -1.9 0  0.6000000000000001 -1.9 0  0.7000000000000002 -1.9 0  0.7999999999999998 -1.9 0  0.8999999999999999 -1.9 0  1 -1.9 0  1.1 -1.9 0  1.2 -1.9 0  1.3 -1.9 0  1.4 -1.9 0  1.5 -1.9 0  1.6 -1.9 0  1.7 -1.9 0  1.8 -1.9 0  1.9 -1.9 0  2 -1.9 0  -2 -1.8 0  -1.9 -1.8 0  -1.8 -1.8 0  -1.7 -1.8 0  -1.6 -1.8 0  -1.5 -1.8 0  -1.4 -1.8 0  -1.3 -1.8 0  -1.2 -1.8 0  -1.1 -1.8 0  -1 -1.8 0  -0.8999999999999999 -1.8 0  -0.8 -1.8 0  -0.7 -1.8 0  -0.6000000000000001 -1.8 0  -0.5 -1.8 0  -0.3999999999999999 -1.8 0  -0.3 -1.8 0  -0.2 -1.8 0  -0.1000000000000001 -1.8 0  0 -1.8 0  0.1000000000000001 -1.8 0  0.2000000000000002 -1.8 0  0.2999999999999998 -1.8 0  0.3999999999999999 -1.8 0  0.5 -1.8 0  0.6000000000000001 -1.8 0  0.7000000000000002 -1.8 0  0.7999999999999998 -1.8 0  0.8999999999999999 -1.8 0  1 -1.8 0  1.1 -1.8 0  1.2 -1.8 0  1.3 -1.8 0  1.4 -1.8 0  1.5 -1.8 0  1.6 -1.8 0  1.7 -1.8 0  1.8 -1.8 0  1.9 -1.8 0  2 -1.8 0  -2 -1.7 0  -1.9 -1.7 0  -1.8 -1.7 0  -1.7 -1.7 0  -1.6 -1.7 0  -1.5 -1.7 0  -1.4 -1.7 0  -1.3 -1.7 0  -1.2 -1.7 0  -1.1 -1.7 0  -1 -1.7 0  -0.8999999999999999 -1.7 0  -0.8 -1.7 0  -0.7 -1.7 0  -0.6000000000000001 -1.7 0  -0.5 -1.7 0  -0.3999999999999999 -1.7 0  -0.3 -1.7 0  -0.2 -1.7 0  -0.1000000000000001 -1.7 0  0 -1.7 0  0.1000000000000001 -1.7 0  0.2000000000000002 -1.7 0  0.2999999999999998 -1.7 0  0.3999999999999999 -1.7 0  0.5 -1.7 0  0.6000000000000001 -1.7 0  0.7000000000000002 -1.7 0  0.7999999999999998 -1.7 0  0.8999999999999999 -1.7 0  1 -1.7 0  1.1 -1.7 0  1.2 -1.7 0  1.3 -1.7 0  1.4 -1.7 0  1.5 -1.7 0  1.6 -1.7 0  1.7 -1.7 0  1.8 -1.7 0  1.9 -1.7 0  2 -1.7 0  -2 -1.6 0  -1.9 -1.6 0  -1.8 -1.6 0  -1.7 -1.6 0  -1.6 -1.6 0  -1.5 -1.6 0  -1.4 -1.6 0  -1.3 -1.6 0  -1.2 -1.6 0  -1.1 -1.6 0  -1 -1.6 0  -0.8999999999999999 -1.6 0  -0.8 -1.6 0  -0.7 -1.6 0  -0.6000000000000001 -1.6 0  -0.5 -1.6 0  -0.3999999999999999 -1.6 0  -0.3 -1.6 0  -0.2 -1.6 0  -0.1000000000000001 -1.6 0  0 -1.6 0  0.1000000000000001 -1.6 0  0.2000000000000002 -1.6 0  0.2999999999999998 -1.6 0  0.3999999999999999 -1.6 0  0.5 -1.6 0  0.6000000000000001 -1.6 0  0.7000000000000002 -1.6 0  0.7999999999999998 -1.6 0  0.8999999999999999 -1.6 0  1 -1.6 0  1.1 -1.6 0  1.2 -1.6 0  1.3 -1.6 0  1.4 -1.6 0  1.5 -1.6 0  1.6 -1.6 0  1.7 -1.6 0  1.8 -1.6 0  1.9 -1.6 0  2 -1.6 0  -2 -1.5 0  -1.9 -1.5 0  -1.8 -1.5 0  -1.7 -1.5 0  -1.6 -1.5 0  -1.5 -1.5 0  -1.4 -1.5 0  -1.3 -1.5 0  -1.2 -1.5 0  -1.1 -1.5 0  -1 -1.5 0  -0.8999999999999999 -1.5 0  -0.8 -1.5 0  -0.7 -1.5 0  -0.6000000000000001 -1.5 0  -0.5 -1.5 0  -0.3999999999999999 -1.5 0  -0.3 -1.5 0  -0.2 -1.5 0  -0.1000000000000001 -1.5 0  0 -1.5 0  0.1000000000000001 -1.5 0  0.2000000000000002 -1.5 0  0.2999999999999998 -1.5 0  0.3999999999999999 -1.5 0  0.5 -1.5 0  0.6000000000000001 -1.5 0  0.7000000000000002 -1.5 0  0.7999999999999998 -1.5 0  0.8999999999999999 -1.5 0  1 -1.5 0  1.1 -1.5 0  1.2 -1.5 0  1.3 -1.5 0  1.4 -1.5 0  1.5 -1.5 0  1.6 -1.5 0  1.7 -1.5 0  1.8 -1.5 0  1.9 -1.5 0  2 -1.5 0  -2 -1.4 0  -1.9 -1.4 0  -1.8 -1.4 0  -1.7 -1.4 0  -1.6 -1.4 0  -1.5 -1.4 0  -1.4 -1.4 0  -1.3 -1.4 0  -1.2 -1.4 0  -1.1 -1.4 0  -1 -1.4 0  -0.8999999999999999 -1.4 0  -0.8 -1.4 0  -0.7 -1.4 0  -0.6000000000000001 -1.4 0  -0.5 -1.4 0  -0.3999999999999999 -1.4 0  -0.3 -1.4 0  -0.2 -1.4 0  -0.1000000000000001 -1.4 0  0 -1.4 0  0.1000000000000001 -1.4 0  0.2000000000000002 -1.4 0  0.2999999999999998 -1.4 0  0.3999999999999999 -1.4 0  0.5 -1.4 0  0.6000000000000001 -1.4 0  0.7000000000000002 -1.4 0  0.7999999999999998 -1.4 0  0.8999999999999999 -1.4 0  1 -1.4 0  1.1 -1.4 0  1.2 -1.4 0  1.3 -1.4 0  1.4 -1.4 0  1.5 -1.4 0  1.6 -1.4 0  1.7 -1.4 0  1.8 -1.4 0  1.9 -1.4 0  2 -1.4 0  -2 -1.3 0  -1.9 -1.3 0  -1.8 -1.3 0  -1.7 -1.3 0  -1.6 -1.3 0  -1.5 -1.3 0  -1.4 -1.3 0  -1.3 -1.3 0  -1.2 -1.3 0  -1.1 -1.3 0  -1 -1.3 0  -0.8999999999999999 -1.3 0  -0.8 -1.3 0  -0.7 -1.3 0  -0.6000000000000001 -1.3 0  -0.5 -1.3 0  -0.3999999999999999 -1.3 0  -0.3 -1.3 0  -0.2 -1.3 0  -0.1000000000000001 -1.3 0  0 -1.3 0  0.1000000000000001 -1.3 0  0.2000000000000002 -1.3 0  0.2999999999999998 -1.3 0  0.3999999999999999 -1.3 0  0.5 -1.3 0  0.6000000000000001 -1.3 0  0.7000000000000002 -1.3 0  0.7999999999999998 -1.3 0  0.8999999999999999 -1.3 0  1 -1.3 0  1.1 -1.3 0  1.2 -1.3 0  1.3 -1.3 0  1.4 -1.3 0  1.5 -1.3 0  1.6 -1.3 0  1.7 -1.3 0  1.8 -1.3 0  1.9 -1.3 0  2 -1.3 0  -2 -1.2 0  -1.9 -1.2 0  -1.8 -1.2 0  -1.7 -1.2 0  -1.6 -1.2 0  -1.5 -1.2 0  -1.4 -1.2 0  -1.3 -1.2 0  -1.2 -1.2 0  -1.1 -1.2 0  -1 -1.2 0  -0.8999999999999999 -1.2 0  -0.8 -1.2 0  -0.7 -1.2 0  -0.6000000000000001 -1.2 0  -0.5 -1.2 0  -0.3999999999999999 -1.2 0  -0.3 -1.2 0  -0.2 -1.2 0  -0.1000000000000001 -1.2 0  0 -1.2 0  0.1000000000000001 -1.2 0  0.2000000000000002 -1.2 0  0.2999999999999998 -1.2 0  0.3999999999999999 -1.2 0  0.5 -1.2 0  0.6000000000000001 -1.2 0  0.7000000000000002 -1.2 0  0.7999999999999998 -1.2 0  0.8999999999999999 -1.2 0  1 -1.2 0  1.1 -1.2 0  1.2 -1.2 0  1.3 -1.2 0  1.4 -1.2 0  1.5 -1.2 0  1.6 -1.2 0  1.7 -1.2 0  1.8 -1.2 0  1.9 -1.2 0  2 -1.2 0  -2 -1.1 0  -1.9 -1.1 0  -1.8 -1.1 0  -1.7 -1.1 0  -1.6 -1.1 0  -1.5 -1.1 0  -1.4 -1.1 0  -1.3 -1.1 0  -1.2 -1.1 0  -1.1 -1.1 0  -1 -1.1 0  -0.8999999999999999 -1.1 0  -0.8 -1.1 0  -0.7 -1.1 0  -0.6000000000000001 -1.1 0  -0.5 -1.1 0  -0.3999999999999999 -1.1 0  -0.3 -1.1 0  -0.2 -1.1 0  -0.1000000000000001 -1.1 0  0 -1.1 0  0.1000000000000001 -1.1 0  0.2000000000000002 -1.1 0  0.2999999999999998 -1.1 0  0.3999999999999999 -1.1 0  0.5 -1.1 0  0.6000000000000001 -1.1 0  0.7000000000000002 -1.1 0  0.7999999999999998 -1.1 0  0.8999999999999999 -1.1 0  1 -1.1 0  1.1 -1.1 0  1.2 -1.1 0  1.3 -1.1 0  1.4 -1.1 0  1.5 -1.1 0  1.6 -1.1 0  1.7 -1.1 0  1.8 -1.1 0  1.9 -1.1 0  2 -1.1 0  -2 -1 0  -1.9 -1 0  -1.8 -1 0  -1.7 -1 0  -1.6 -1 0  -1.5 -1 0  -1.4 -1 0  -1.3 -1 0  -1.2 -1 0  -1.1 -1 0  -1 -1 0  -0.8999999999999999 -1 0  -0.8 -1 0  -0.7 -1 0  -0.6000000000000001 -1 0  -0.5 -1 0  -0.3999999999999999 -1 0  -0.3 -1 0  -0.2 -1 0  -0.1000000000000001 -1 0  0 -1 0  0.1000000000000001 -1 0  0.2000000000000002 -1 0  0.2999999999999998 -1 0  0.3999999999999999 -1 0  0.5 -1 0  0.6000000000000001 -1 0  0.7000000000000002 -1 0  0.7999999999999998 -1 0  0.8999999999999999 -1 0  1 -1 0  1.1 -1 0  1.2 -1 0  1.3 -1 0  1.4 -1 0  1.5 -1 0  1.6 -1 0  1.7 -1 0  1.8 -1 0  1.9 -1 0  2 -1 0  -2 -0.8999999999999999 0  -1.9 -0.8999999999999999 0  -1.8 -0.8999999999999999 0  -1.7 -0.8999999999999999 0  -1.6 -0.8999999999999999 0  -1.5 -0.8999999999999999 0  -1.4 -0.8999999999999999 0  -1.3 -0.8999999999999999 0  -1.2 -0.8999999999999999 0  -1.1 -0.8999999999999999 0  -1 -0.8999999999999999 0  -0.8999999999999999 -0.8999999999999999 0  -0.8 -0.8999999999999999 0  -0.7 -0.8999999999999999 0  -0.6000000000000001 -0.8999999999999999 0  -0.5 -0.8999999999999999 0  -0.3999999999999999 -0.8999999999999999 0  -0.3 -0.8999999999999999 0  -0.2 -0.8999999999999999 0  -0.1000000000000001 -0.8999999999999999 0  0 -0.8999999999999999 0  0.1000000000000001 -0.8999999999999999 0  0.2000000000000002 -0.8999999999999999 0  0.2999999999999998 -0.8999999999999999 0  0.3999999999999999 -0.8999999999999999 0  0.5 -0.8999999999999999 0  0.6000000000000001 -0.8999999999999999 0  0.7000000000000002 -0.8999999999999999 0  0.7999999999999998 -0.8999999999999999 0  0.8999999999999999 -0.8999999999999999 0  1 -0.8999999999999999 0  1.1 -0.8999999999999999 0  1.2 -0.8999999999999999 0  1.3 -0.8999999999999999 0  1.4 -0.8999999999999999 0  1.5 -0.8999999999999999 0  1.6 -0.8999999999999999 0  1.7 -0.8999999999999999 0  1.8 -0.8999999999999999 0  1.9 -0.8999999999999999 0  2 -0.8999999999999999 0  -2 -0.8 0  -1.9 -0.8 0  -1.8 -0.8 0  -1.7 -0.8 0  -1.6 -0.8 0  -1.5 -0.8 0  -1.4 -0.8 0  -1.3 -0.8 0  -1.2 -0.8 0  -1.1 -0.8 0  -1 -0.8 0  -0.8999999999999999 -0.8 0  -0.8 -0.8 0  -0.7 -0.8 0  -0.6000000000000001 -0.8 0  -0.5 -0.8 0  -0.3999999999999999 -0.8 0  -0.3 -0.8 0  -0.2 -0.8 0  -0.1000000000000001 -0.8 0  0 -0.8 0  0.1000000000000001 -0.8 0  0.2000000000000002 -0.8 0  0.2999999999999998 -0.8 0  0.3999999999999999 -0.8 0  0.5 -0.8 0  0.6000000000000001 -0.8 0  0.7000000000000002 -0.8 0  0.7999999999999998 -0.8 0  0.8999999999999999 -0.8 0  1 -0.8 0  1.1 -0.8 0  1.2 -0.8 0  1.3 -0.8 0  1.4 -0.8 0  1.5 -0.8 0  1.6 -0.8 0  1.7 -0.8 0  1.8 -0.8 0  1.9 -0.8 0  2 -0.8 0  -2 -0.7 0  -1.9 -0.7 0  -1.8 -0.7 0  -1.7 -0.7 0  -1.6 -0.7 0  -1.5 -0.7 0  -1.4 -0.7 0  -1.3 -0.7 0  -1.2 -0.7 0  -1.1 -0.7 0  -1 -0.7 0  -0.8999999999999999 -0.7 0  -0.8 -0.7 0  -0.7 -0.7 0  -0.6000000000000001 -0.7 0  -0.5 -0.7 0  -0.3999999999999999 -0.7 0  -0.3 -0.7 0  -0.2 -0.7 0  -0.1000000000000001 -0.7 0  0 -0.7 0  0.1000000000000001 -0.7 0  0.2000000000000002 -0.7 0  0.2999999999999998 -0.7 0  0.3999999999999999 -0.7 0  0.5 -0.7 0  0.600000000000000
[...]
<PointData  Scalars="f_1726"> 
<DataArray  type="Float64"  Name="f_1726"  format="ascii">0.0000000000000000e+00  0.0000000000000000e+00  0.0000000000000000e+00  0.0000000000000000e+00  0.0000000000000000e+00  0.0000000000000000e+00  0.0000000000000000e+00  0.0000000000000000e+00  0.0000000000000000e+00  0.0000000000000000e+00  0.0000000000000000e+00  0.0000000000000000e+00  0.0000000000000000e+00  0.0000000000000000e+00  0.0000000000000000e+00  0.0000000000000000e+00  0.0000000000000000e+00  0.0000000000000000e+00  0.0000000000000000e+00  0.0000000000000000e+00  0.0000000000000000e+00  0.0000000000000000e+00  0.0000000000000000e+00  0.0000000000000000e+00  0.0000000000000000e+00  0.0000000000000000e+00  0.0000000000000000e+00  0.0000000000000000e+00  0.0000000000000000e+00  0.0000000000000000e+00  0.0000000000000000e+00  0.0000000000000000e+00  0.0000000000000000e+00  0.0000000000000000e+00  0.0000000000000000e+00  0.0000000000000000e+00  0.0000000000000000e+00  0.0000000000000000e+00  0.0000000000000000e+00  0.0000000000000000e+00  0.0000000000000000e+00  0.0000000000000000e+00  -2.2862038281142867e-11  -2.6642487165199826e-11  1.7507536144610684e-10  -4.2188198158389156e-11  -8.8669555439227185e-10  4.7772566577726015e-10  4.3627953621725186e-09  6.0024487570233423e-10  -1.8109171368955397e-08  -3.6134434137157389e-08  -3.1850835471842246e-08  -1.0978073135460878e-08  2.9710633871229958e-09  3.0099977078173715e-09  -2.8570415774275230e-10  -5.7692396772418151e-10  9.6656935927249356e-11  8.8796502835572906e-11  -3.4529497480542276e-11  -6.3084307449918237e-12  7.5177608769025632e-12  -1.4747555359848724e-12  -6.4294872507407323e-13  4.8027351625596437e-13  -1.0543744427903850e-13  -2.3954492346331269e-14  2.6459438944177632e-14  -9.4913627219071564e-15  1.1139980216345341e-15  7.1315960563020728e-16  -5.3153289296475440e-16  1.9919385342692491e-16  -4.4050937502680703e-17  3.6471899687212885e-19  5.1649326117338007e-18  -3.1069041908119553e-18  1.2641039254674948e-18  -4.1903824289971558e-19  1.3283238418716466e-19  0.0000000000000000e+00  0.0000000000000000e+00  -2.6642487165199848e-11  1.9160209938108236e-10  -1.7044893841864183e-10  -8.3935997702021223e-10  1.7626425375967274e-09  3.2943421878215806e-09  -9.4910098102906118e-09  -1.8539659525749135e-08  2.7643955827257760e-08  1.1848165520917850e-07  1.5467673800207404e-07  9.0589809280102905e-08  7.3270715094985246e-09  -1.7561134128592119e-08  -3.9916843196068123e-09  3.2603617075138546e-09  5.5159963134459599e-10  -6.5310844933707404e-10  2.9816983209948472e-11  1.0238462093940519e-10  -3.4504101646342425e-11  -4.9900272771442064e-12  7.1972625517836678e-12  -2.0818509186397806e-12  -1.9394394413340047e-13  3.9077333160477018e-13  -1.5583997332226416e-13  2.1675487200420280e-14  1.0315683416826398e-14  -8.3090237839363137e-15  3.1302251091516595e-15  -6.6831990621822665e-16  -1.2479758387688907e-17  8.8125287901381278e-17  -4.9994184780978709e-17  1.9544891291860063e-17  -6.1804563464203266e-18  1.6788907928669705e-18  -4.1903824289971611e-19  0.0000000000000000e+00  0.0000000000000000e+00  1.7507536144610681e-10  -1.7044893841864175e-10  -7.6738544429842671e-10  2.2726559119639928e-09  1.2538262243234077e-09  -1.3482633626244098e-08  8.3659834109010311e-10  6.7351800298826152e-08  2.5578079479661375e-08  -2.7396983121883062e-07  -5.8304849413035965e-07  -5.1683417327600235e-07  -1.6772461352949276e-07  5.5109524238463163e-08  4.4891815617773580e-08  -7.9770685396077019e-09  -8.0334546125157464e-09  2.3707923097546214e-09  9.5059150968524292e-10  -6.2565447837327850e-10  2.5486144059407424e-11  9.0986989179993572e-11  -3.7318026653746505e-11  1.1093766864352691e-12  5.0486966011182708e-12  -2.4479527008696486e-12  4.5094503220934217e-13  1.1453743781863813e-13  -1.1984955224630423e-13  4.8567398294869772e-14  -1.1107444897628028e-14  1.2769456268654746e-16  1.2803559651491778e-15  -7.5924482914403090e-16  3.0143760726257906e-16  -9.6244845632810083e-17  2.6080931904573087e-17  -6.1804563464202988e-18  1.2641039254674907e-18  0.0000000000000000e+00  0.0000000000000000e+00  -4.2188198158388943e-11  -8.3935997702021223e-10  2.2726559119639928e-09  4.2651529104731643e-10  -1.3809593454031519e-08  1.5725164255954397e-08  6.0274442176103486e-08  -1.0992734510253603e-07  -3.0371125101521858e-07  3.3020657943494768e-07  1.7545701258383621e-06  2.3648855553033935e-06  1.3547872132311274e-06  6.2506878888401586e-08  -2.6904691829154089e-07  -3.8047814947259184e-08  5.0802563249458844e-08  1.5289304696607187e-09  -9.0400187170112418e-09  1.8826003954107298e-09  9.2695763444257879e-10  -6.0541228487784096e-10  8.1230896771625573e-11  5.8267560963930186e-11  -3.7185536465649808e-11  8.7403424512869760e-12  9.8357977972289071e-13  -1.6900517357750708e-12  7.5203319942546077e-13  -1.8588633484015859e-13  7.8496241135565108e-15  1.8401892739563352e-14  -1.1581005216633617e-14  4.6908255837396619e-15  -1.5108639979820492e-15  4.1093397746530499e-16  -9.6244845632810551e-17  1.9544891291860093e-17  -3.1069041908119680e-18  0.0000000000000000e+00  0.0000000000000000e+00  -8.8669555439227340e-10  1.7626425375967274e-09  1.2538262243234083e-09  -1.3809593454031516e-08  2.0538770694699825e-08  4.5436107854664623e-08  -1.7355760473274196e-07  -9.6481460870422270e-08  9.3630822901481961e-07  6.4466047937222328e-07  -3.8133453829087775e-06  -8.8137366488801654e-06  -7.8554740257323088e-06  -2.3465315527805811e-06  9.5469379632693152e-07  5.9813428009649345e-07  -1.7279465895990724e-07  -9.2108030438559352e-08  4.5211852926658591e-08  4.8673661959813100e-09  -8.7168970455870914e-09  2.1444698628496524e-09  5.3330101764644120e-10  -5.3849319648876260e-10  1.5925885926595490e-10  2.0901109795197823e-12  -2.3076587947936054e-11  1.1536536083173928e-11  -3.0929143144025979e-12  2.1906026084375079e-13  2.6078875327076567e-13  -1.7633805815420180e-13  7.3031353685255128e-14  -2.3734237771384857e-14  6.4695827230543243e-15  -1.5108639979820462e-15  3.0143760726257965e-16  -4.9994184780978617e-17  5.1649326117337930e-18  0.0000000000000000e+00  0.0000000000000000e+00  4.7772566577726221e-10  3.2943421878215843e-09  -1.3482633626244101e-08  1.5725164255954391e-08  4.5436107854664636e-08  -1.8747922987983844e-07  5.0770326055552181e-08  9.8824794394900415e-07  -1.0616469880838083e-06  -4.8276151724888470e-06  3.5116014917966332e-06  2.5823284579283539e-05  3.6161727961140723e-05  2.0145055918648599e-05  9.8406798698349387e-08  -4.0437666419002602e-06  -1.9061701600291983e-07  7.4032568478455328e-07  -8.2945071909811640e-08  -1.0437648815749233e-07  4.3270701522185421e-08  1.7915991645870886e-09  -7.2636263212979881e-09  2.7507362523021284e-09  -1.8216931373349847e-10  -2.9984658203443492e-10  1.7467030648816373e-10  -5.1113741540581245e-11  5.0169160637867422e-12  3.6198781009059880e-12  -2.6764922145751935e-12  1.1370019409619962e-12  -3.7320793064769543e-13  1.0196161754289300e-13  -2.3734237771384860e-14  4.6908255837396540e-15  -7.5924482914403307e-16  8.8125287901381303e-17  3.6471899687208258e-19  0.0000000000000000e+00  0.0000000000000000e+00  4.3627953621725194e-09  -9.4910098102906267e-09  8.3659834109010290e-10  6.0274442176103499e-08  -1.7355760473274196e-07  5.0770326055552148e-08  9.4019363438409302e-07  -1.8765331047235446e-06  -2.9801453214416176e-06  1.2300469219280971e-05  1.3675464950321920e-05  -5.2067716914149270e-05  -1.3365327585551724e-04  -1.1982184137148360e-04  -3.2101277176904838e-05  1.6338217225461335e-05  7.4543410024970417e-06  -3.2903203669874054e-06  -8.1168776114302984e-07  7.2634278076823739e-07  -7.7217448682099188e-08  -8.6820401832782589e-08  4.4961101224288187e-08  -6.2267123055650075e-09  -3.5831357787627867e-09  2.5971670282900364e-09  -8.3820316527870496e-10  1.0480048781052530e-10  4.8749167124013558e-11  -4.0457580082386408e-11  1.7700413430019083e-11  -5.8754676660466488e-12  1.6092200613828446e-12  -3.7320793064769609e-13  7.3031353685255229e-14  -1.1581005216633625e-14  1.2803559651491845e-15  -1.2479758387689586e-17  -4.4050937502680561e-17  0.0000000000000000e+00  0.0000000000000000e+00  6.0024487570233413e-10  -1.8539659525749128e-08  6.7351800298826205e-08  -1.0992734510253609e-07  -9.6481460870422362e-08  9.8824794394900436e-07  -1.8765331047235444e-06  -2.0245260219348992e-06  1.4417555146944650e-05  -5.8162075219420294e-06  -7.4267176660331572e-05  2.8340907854019791e-05  3.7898203594053135e-04  5.5617818420892323e-04  2.9889631475004237e-04  -1.3331004076628215e-05  -5.9327240532373461e-05  3.4990615758237795e-06  9.7717983750623483e-06  -2.6839260320145836e-06  -7.9538124829450954e-07  6.8615779689370245e-07  -1.4795209944802086e-07  -3.6138583946794304e-08  3.7620691412853613e-08  -1.3616652803463679e-08  2.0752102802519091e-09  6.2635729378469036e-10  -6.0826515935531410e-10  2.7550701423810529e-10  -9.2625704665834675e-11  2.5439778997354899e-11  -5.8754676660466254e-12  1.1370019409619926e-12  -1.7633805815420107e-13  1.8401892739563235e-14  1.2769456268655996e-16  -6.6831990621822537e-16  1.9919385342692439e-16  0.0000000000000000e+00  0.0000000000000000e+00  -1.8109171368955391e-08  2.7643955827257747e-08  2.5578079479661326e-08  -3.0371125101521869e-07  9.3630822901482036e-07  -1.0616469880838083e-06  -2.9801453214416197e-06  1.4417555146944654e-05  -1.2879677142051418e-05  -6.3369365067428852e-05  1.4616629719641554e-04  2.6531918333749815e-04  -6.8954915694936520e-04  -2.0357795025222254e-03  -1.8367659080960532e-03  -4.2318419991233463e-04  2.7594562334099751e-04  8.1383513645255076e-05  -5.6550216433866393e-05  -1.6627200967300014e-06  9.4384764605904049e-06  -3.0011955946896302e-06  -2.1165940437036840e-07  5.2346596794786793e-07  -2.1849357964882817e-07  3.9665074471414025e-08  7.4176520389353101e-09  -9.0789327064900027e-09  4.2868680121657827e-09  -1.4625747552492111e-09  4.0295340911094393e-10  -9.2625704665835114e-11  1.7700413430019112e-11  -2.6764922145752044e-12  2.6078875327076815e-13  7.8496241135559791e-15  -1.1107444897627973e-14  3.1302251091516421e-15  -5.3153289296475262e-16  0.0000000000000000e+00  0.0000000000000000e+00  -3.6134434137157342e-08  1.1848165520917838e-07  -2.7396983121883047e-07  3.3020657943494784e-07  6.4466047937222359e-07  -4.8276151724888504e-06  1.2300469219280976e-05  -5.8162075219420243e-06  -6.3369365067428838e-05  1.7581466137702866e-04  7.9216437373552396e-05  -1.0894136379339121e-03  6.8356967727002584e-06  5.5348032415534418e-03  8.6222621496000237e-03  4.4165002542808753e-03  -4.6608750777227086e-04  -8.3425723923570365e-04  1.5428202465357931e-04  1.0612688491958670e-04  -5.4237233729942033e-05  2.8260848427678169e-06  6.8058103827899166e-06  -3.4455270390491760e-06  7.3880442441178325e-07  7.3949817901020652e-08  -1.3415046754094165e-07  6.6665064356072404e-08  -2.3138205566462496e-08  6.3973493136910359e-09  -1.4625747552492091e-09  2.7550701423810586e-10  -4.0457580082386349e-11  3.6198781009059852e-12  2.1906026084375170e-13  -1.8588633484015842e-13  4.8567398294869917e-14  -8.3090237839363074e-15  7.1315960563020817e-16  0.0000000000000000e+00  0.0000000000000000e+00  -3.1850835471842200e-08  1.5467673800207389e-07  -5.8304849413035891e-07  1.7545701258383607e-06  -3.8133453829087775e-06  3.5116014917966324e-06  1.3675464950321928e-05  -7.4267176660331612e-05  1.4616629719641557e-04  7.9216437373552261e-05  -1.0938493707592434e-03  1.3840083569574080e-03  4.8377268827511973e-03  -8.6429139571251434e-03  -3.1195338936481264e-02  -2.8344087544749198e-02  -5.1994514583541471e-03  4.5766646828475704e-03  6.1385324880859962e-04  -8.5988700224201825e-04  1.4571346419865318e-04  7.7412827415025137e-05  -5.2904917917317317e-05  1.3473574984445269e-05  4.0287879654433740e-07  -1.9533728012229155e-06  1.0357028508788211e-06  -3.6688753674045570e-07  1.0184964237962029e-07  -2.3138205566462499e-08  4.2868680121657802e-09  -6.0826515935531627e-10  4.8749167124013713e-11  5.0169160637866905e-12  -3.0929143144025841e-12  7.5203319942545693e-13  -1.1984955224630395e-13  1.0315683416826305e-14  1.1139980216345450e-15  0.0000000000000000e+00  0.0000000000000000e+00  -1.0978073135460865e-08  9.0589809280102785e-08  -5.1683417327600193e-07  2.3648855553033918e-06  -8.8137366488801587e-06  2.5823284579283529e-05  -5.2067716914149243e-05  2.8340907854019818e-05  2.6531918333749853e-04  -1.0894136379339125e-03  1.3840083569574084e-03  3.6798873866674894e-03  -1.4693668304856650e-02  -7.2301088224993272e-03  8.0099127826468830e-02  1.3519831422974340e-01  6.4720130257752168e-02  -1.1867878620589382e-02  -1.0773998303965377e-02  3.7733257972721239e-03  6.0837761572458406e-04  -7.7640950676796390e-04  2.4082235932453206e-04  -7.4071221323738558e-06  -2.7810041644164913e-05  1.6064412789632663e-05  -5.8337988082356580e-06  1.6271120600483639e-06  -3.6688753674045622e-07  6.6665064356072523e-08  -9.0789327064900209e-09  6.2635729378469595e-10  1.0480048781052448e-10  -5.1113741540581161e-11  1.1536536083173909e-11  -1.6900517357750674e-12  1.1453743781863833e-13  2.1675487200420227e-14  -9.4913627219071438e-15  0.0000000000000000e+00  0.0000000000000000e+00  2.9710633871230004e-09  7.3270715094984758e-09  -1.6772461352949239e-07  1.3547872132311250e-06  -7.8554740257323020e-06  3.6161727961140703e-05  -1.3365327585551716e-04  3.7898203594053119e-04  -6.8954915694936563e-04  6.8356967726996181e-06  4.8377268827511991e-03  -1.4693668304856652e-02  4.3936788632787504e-03  8.3030492887873078e-02  -9.6188708187844515e-02  -4.8213038187529406e-01  -4.4153278915380012e-01  -5.4043358779783265e-02  7.3485813895215565e-02  -2.6647559536652149e-03  -1.0427051393290398e-02  4.2025049834375243e-03  -3.6933153510333445e-04  -3.8137417701780132e-04  2.4847814118984465e-04  -9.3088281446494447e-05  2.6107844790018216e-05  -5.8337988082356326e-06  1.0357028508788181e-06  -1.3415046754094112e-07  7.4176520389352414e-09  2.0752102802519186e-09  -8.3820316527870258e-10  1.7467030648816318e-10  -2.3076587947935922e-11  9.8357977972287233e-13  4.5094503220934536e-13  -1.5583997332226414e-13  2.6459438944177620e-14  0.0000000000000000e+00  0.0000000000000000e+00  3.0099977078173682e-09  -1.7561134128592112e-08  5.5109524238463203e-08  6.2506878888401122e-08  -2.3465315527805773e-06  2.0145055918648578e-05  -1.1982184137148351e-04  5.5617818420892313e-04  -2.0357795025222245e-03  5.5348032415534426e-03  -8.6429139571251399e-03  -7.2301088224993419e-03  8.3030492887873092e-02  -1.6314264172098542e-01  -2.3915020169691767e-01  1.1373114369042421e+00  2.1577942030717661e+00  9.3123198049730682e-01  -2.6875238734506640e-01  -1.1171783704712435e-01  7.0621481025885696e-02  -1.0544350711575846e-02  -4.8740792620268186e-03  3.8244808149944590e-03  -1.4921460859557212e-03  4.2130692653277908e-04  -9.3088281446494867e-05  1.6064412789632687e-05  -1.9533728012229261e-06  7.3949817901022769e-08  3.9665074471413562e-08  -1.3616652803463647e-08  2.5971670282900211e-09  -2.9984658203443331e-10  2.0901109795196349e-12  8.7403424512869647e-12  -2.4479527008696522e-12  3.9077333160476901e-13  -2.3954492346331177e-14  0.0000000000000000e+00  0.0000000000000000e+00  -2.8570415774275483e-10  -3.9916843196067991e-09  4.4891815617773527e-08  -2.6904691829154078e-07  9.5469379632693258e-07  9.8406798698339514e-08  -3.2101277176904777e-05  2.9889631475004205e-04  -1.8367659080960525e-03  8.6222621496000185e-03  -3.1195338936481271e-02  8.0099127826468844e-02  -9.6188708187844502e-02  -2.3915020169691770e-01  1.2969115235586965e+00  -7.2907612074022277e-01  -7.5503716594626633e+00  -6.9779099406454277e+00  -2.6898279230215610e-01  1.0935113192396437e+00  -2.5570683842460917e-01  -5.2794512675453181e-02  5.8317745498446615e-02  -2.4064827644592415e-02  6.8515633018422289e-03  -1.4921460859557195e-03  2.4847814118984503e-04  -2.7810041644164848e-05  4.0287879654433264e-07  7.3880442441178367e-07  -2.1849357964882788e-07  3.7620691412853693e-08  -3.5831357787627830e-09  -1.8216931373349795e-10  1.5925885926595477e-10  -3.7185536465649730e-11  5.0486966011182764e-12  -1.9394394413339991e-13  -1.0543744427903843e-13  0.0000000000000000e+00  0.0000000000000000e+00  -5.7692396772418192e-10  3.2603617075138616e-09  -7.9770685396077532e-09  -3.8047814947258926e-08  5.9813428009649260e-07  -4.0437666419002594e-06  1.6338217225461348e-05  -1.3331004076628385e-05  -4.2318419991233365e-04  4.4165002542808710e-03  -2.8344087544749187e-02  1.3519831422974340e-01  -4.8213038187529428e-01  1.1373114369042421e+00  -7.2907612074022199e-01  -5.8955968169301842e+00  1.5382489211079090e+01  3.5532664686824972e+01  1.2761808684587530e+01  -5.6954552371696954e+00  -2.8163006260627804e-01  8.7182670997144829e-01  -3.9149553179581092e-01  1.1267183109762893e-01  -2.4064827644592408e-02  3.8244808149944559e-03  -3.8137417701780268e-04  -7.4071221323736169e-06  1.3473574984445213e-05  -3.4455270390491620e-06  5.2346596794786486e-07  -3.6138583946793986e-08  -6.2267123055650571e-09  2.7507362523021363e-09  -5.3849319648876363e-10  5.8267560963930276e-11  1.1093766864352614e-12  -2.0818509186397770e-12  4.8027351625596416e-13  0.0000000000000000e+00  0.0000000000000000e+00  9.6656935927249692e-11  5.5159963134459475e-10  -8.0334546125157481e-09  5.0802563249458904e-08  -1.7279465895990793e-07  -1.9061701600291662e-07  7.4543410024970298e-06  -5.9327240532373434e-05  2.7594562334099773e-04  -4.6608750777227221e-04  -5.1994514583541384e-03  6.4720130257752140e-02  -4.4153278915380001e-01  2.1577942030717669e+00  -7.5503716594626669e+00  1.5382489211079092e+01  6.3565196007967089e+00  -1.2100167718795571e+02  -1.1306930566796007e+02  9.8716874312583940e+00  1.2383152792475816e+01  -6.4546382401365845e+00  1.8852689701970462e+00  -3.9149553179581165e-01  5.8317745498446746e-02  -4.8740792620268463e-03  -3.6933153510333076e-04  2.4082235932453095e-04  -5.2904917917317236e-05  6.8058103827899072e-06  -2.1165940437036874e-07  -1.4795209944802099e-07  4.4961101224288081e-08  -7.2636263212979814e-09  5.3330101764643934e-10  8.1230896771625832e-11  -3.7318026653746653e-11  7.1972625517836702e-12  -6.4294872507407454e-13  0.0000000000000000e+00  0.0000000000000000e+00  8.8796502835572893e-11  -6.5310844933707446e-10  2.3707923097546260e-09  1.5289304696606897e-09  -9.2108030438559299e-08  7.4032568478455381e-07  -3.2903203669874122e-06  3.4990615758238295e-06  8.1383513645254846e-05  -8.3425723923570322e-04  4.5766646828475739e-03  -1.1867878620589420e-02  -5.4043358779783036e-02  9.3123198049730582e-01  -6.9779099406454268e+00  3.5532664686824980e+01  -1.2100167718795572e+02  1.7189492153519478e+02  6.2745441902899859e+02  1.4323783518290773e+02  -1.0892707602203500e+02  3.2528467333931644e+01  -6.4546382401365614e+00  8.7182670997144507e-01  -5.2794512675452751e-02  -1.0544350711575856e-02  4.2025049834375303e-03  -7.7640950676796151e-04  7.7412827415024757e-05  2.8260848427678834e-06  -3.0011955946896340e-06  6.8615779689370499e-07  -8.6820401832782628e-08  1.7915991645871163e-09  2.1444698628496475e-09  -6.0541228487783910e-10  9.0986989179993533e-11  -4.9900272771441644e-12  -1.4747555359848765e-12  0.0000000000000000e+00  0.0000000000000000e+00  -3.4529497480542314e-11  2.9816983209948783e-11  9.5059150968524209e-10  -9.0400187170112402e-09  4.5211852926658631e-08  -8.2945071909811997e-08  -8.1168776114302857e-07  9.7717983750623568e-06  -5.6550216433866481e-05  1.5428202465357979e-04  6.1385324880859767e-04  -1.0773998303965374e-02  7.3485813895215593e-02  -2.6875238734506673e-01  -2.6898279230215316e-01  1.2761808684587532e+01  -1.1306930566796007e+02  6.2745441902899870e+02  -2.0408717585678144e+03  -1.9353753089773761e+03  6.0122074453154255e+02  -1.0892707602203545e+02  1.2383152792475849e+01  -2.8163006260628737e-01  -2.5570683842460723e-01  7.0621481025885238e-02  -1.0427051393290369e-02  6.0837761572457528e-04  1.4571346419865427e-04  -5.4237233729942148e-05  9.4384764605904100e-06  -7.9538124829451187e-07  -7.7217448682099135e-08  4.3270701522185447e-08  -8.716897045587098