<?xml version="1.0"?>
<VTKFile type="UnstructuredGrid"  version="0.1"  >
<UnstructuredGrid>
<Piece  NumberOfPoints="1681" NumberOfCells="3200">
<Points>
<DataArray  type="Float64"  NumberOfComponents="3"  format="ascii">-2 -2 0  -1.9 -2 0  -1.8 -2 0  -1.7 -2 0  -1.6 -2 0  -1.5 -2 0  -1.4 -2 0  -1.3 -2 0  -1.2 -2 0  -1.1 -2 0  -1 -2 0  -0.8999999999999999 -2 0  -0.8 -2 0  -0.7 -2 0  -0.6000000000000001 -2 0  -0.5 -2 0  -0.3999999999999999 -2 0  -0.3 -2 0  -0.2 -2 0  -0.1000000000000001 -2 0  0 -2 0  0.1000000000000001 -2 0  0.2000000000000002 -2 0  0.2999999999999998 -2 0  0.3999999999999999 -2 0  0.5 -2 0  0.6000000000000001 -2 0  0.7000000000000002 -2 0  0.7999999999999998 -2 0  0.8999999999999999 -2 0  1 -2 0  1.1 -2 0  1.2 -2 0  1.3 -2 0  1.4 -2 0  1.5 -2 0  1.6 -2 0  1.7 -2 0  1.8 -2 0  1.9 -2 0  2 -2 0  -2 -1.9 0  -1.9 -1.9 0  -1.8 -1.9 0  -1.7 -1.9 0  -1.6 -1.9 0  -1.5 -1.9 0  -1.4 -1.9 0  -1.3 -1.9 0  -1.2 -1.9 0  -1.1 -1.9 0  -1 -1.9 0  -0.8999999999999999 -1.9 0  -0.8 -1.9 0  -0.7 -1.9 0  -0.6000000000000001 -1.9 0  -0.5 -1.9 0  -0.3999999999999999 -1.9 0  -0.3 -1.9 0  -0.2 -1.9 0  -0.1000000000000001 -1.9 0  0 -1.9 0  0.1000000000000001 -1.9 0  0.2000000000000002 -1.9 0  0.2999999999999998 -1.9 0  0.3999999999999999 -1.9 0  0.5 -1.9 0  0.6000000000000001 -1.9 0  0.7000000000000002 -1.9 0  0.7999999999999998 -1.9 0  0.8999999999999999 -1.9 0  1 -1.9 0  1.1 -1.9 0  1.2 -1.9 0  1.3 -1.9 0  1.4 -1.9 0  1.5 -1.9 0  1.6 -1.9 0  1.7 -1.9 0  1.8 -1.9 0  1.9 -1.9 0  2 -1.9 0  -2 -1.8 0  -1.9 -1.8 0  -1.8 -1.8 0  -1.7 -1.8 0  -1.6 -1.8 0  -1.5 -1.8 0  -1.4 -1.8 0  -1.3 -1.8 0  -1.2 -1.8 0  -1.1 -1.8 0  -1 -1.8 0  -0.8999999999999999 -1.8 0  -0.8 -1.8 0  -0.7 -1.8 0  -0.6000000000000001 -1.8 0  -0.5 -1.8 0  -0.3999999999999999 -1.8 0  -0.3 -1.8 0  -0.2 -1.8 0  -0.1000000000000001 -1.8 0  0 -1.8 0  0.1000000000000001 -1.8 0  0.2000000000000002 -1.8 0  0.2999999999999998 -1.8 0  0.3999999999999999 -1.8 0  0.5 -1.8 0  0.6000000000000001 -1.8 0  0.7000000000000002 -1.8 0  0.7999999999999998 -1.8 0  0.8999999999999999 -1.8 0  1 -1.8 0  1.1 -1.8 0  1.2 -1.8 0  1.3 -1.8 0  1.4 -1.8 0  1.5 -1.8 0  1.6 -1.8 0  1.7 -1.8 0  1.8 -1.8 0  1.9 -1.8 0  2 -1.8 0  -2 -1.7 0  -1.9 -1.7 0  -1.8 -1.7 0  -1.7 -1.7 0  -1.6 -1.7 0  -1.5 -1.7 0  -1.4 -1.7 0  -1.3 -1.7 0  -1.2 -1.7 0  -1.1 -1.7 0  -1 -1.7 0  -0.8999999999999999 -1.7 0  -0.8 -1.7 0  -0.7 -1.7 0  -0.6000000000000001 -1.7 0  -0.5 -1.7 0  -0.3999999999999999 -1.7 0  -0.3 -1.7 0  -0.2 -1.7 0  -0.1000000000000001 -1.7 0  0 -1.7 0  0.1000000000000001 -1.7 0  0.2000000000000002 -1.7 0  0.2999999999999998 -1.7 0  0.3999999999999999 -1.7 0  0.5 -1.7 0  0.6000000000000001 -1.7 0  0.7000000000000002 -1.7 0  0.7999999999999998 -1.7 0  0.8999999999999999 -1.7 0  1 -1.7 0  1.1 -1.7 0  1.2 -1.7 0  1.3 -1.7 0  1.4 -1.7 0  1.5 -1.7 0  1.6 -1.7 0  1.7 -1.7 0  1.8 -1.7 0  1.9 -1.7 0  2 -1.7 0  -2 -1.6 0  -1.9 -1.6 0  -1.8 -1.6 0  -1.7 -1.6 0  -1.6 -1.6 0  -1.5 -1.6 0  -1.4 -1.6 0  -1.3 -1.6 0  -1.2 -1.6 0  -1.1 -1.6 0  -1 -1.6 0  -0.8999999999999999 -1.6 0  -0.8 -1.6 0  -0.7 -1.6 0  -0.6000000000000001 -1.6 0  -0.5 -1.6 0  -0.3999999999999999 -1.6 0  -0.3 -1.6 0  -0.2 -1.6 0  -0.1000000000000001 -1.6 0  0 -1.6 0  0.1000000000000001 -1.6 0  0.2000000000000002 -1.6 0  0.2999999999999998 -1.6 0  0.3999999999999999 -1.6 0  0.5 -1.6 0  0.6000000000000001 -1.6 0  0.7000000000000002 -1.6 0  0.7999999999999998 -1.6 0  0.8999999999999999 -1.6 0  1 -1.6 0  1.1 -1.6 0  1.2 -1.6 0  1.3 -1.6 0  1.4 -1.6 0  1.5 -1.6 0  1.6 -1.6 0  1.7 -1.6 0  1.8 -1.6 0  1.9 -1.6 0  2 -1.6 0  -2 -1.5 0  -1.9 -1.5 0  -1.8 -1.5 0  -1.7 -1.5 0  -1.6 -1.5 0  -1.5 -1.5 0  -1.4 -1.5 0  -1.3 -1.5 0  -1.2 -1.5 0  -1.1 -1.5 0  -1 -1.5 0  -0.8999999999999999 -1.5 0  -0.8 -1.5 0  -0.7 -1.5 0  -0.6000000000000001 -1.5 0  -0.5 -1.5 0  -0.3999999999999999 -1.5 0  -0.3 -1.5 0  -0.2 -1.5 0  -0.1000000000000001 -1.5 0  0 -1.5 0  0.1000000000000001 -1.5 0  0.2000000000000002 -1.5 0  0.2999999999999998 -1.5 0  0.3999999999999999 -1.5 0  0.5 -1.5 0  0.6000000000000001 -1.5 0  0.7000000000000002 -1.5 0  0.7999999999999998 -1.5 0  0.8999999999999999 -1.5 0  1 -1.5 0  1.1 -1.5 0  1.2 -1.5 0  1.3 -1.5 0  1.4 -1.5 0  1.5 -1.5 0  1.6 -1.5 0  1.7 -1.5 0  1.8 -1.5 0  1.9 -1.5 0  2 -1.5 0  -2 -1.4 0  -1.9 -1.4 0  -1.8 -1.4 0  -1.7 -1.4 0  -1.6 -1.4 0  -1.5 -1.4 0  -1.4 -1.4 0  -1.3 -1.4 0  -1.2 -1.4 0  -1.1 -1.4 0  -1 -1.4 0  -0.8999999999999999 -1.4 0  -0.8 -1.4 0  -0.7 -1.4 0  -0.6000000000000001 -1.4 0  -0.5 -1.4 0  -0.3999999999999999 -1.4 0  -0.3 -1.4 0  -0.2 -1.4 0  -0.1000000000000001 -1.4 0  0 -1.4 0  0.1000000000000001 -1.4 0  0.2000000000000002 -1.4 0  0.2999999999999998 -1.4 0  0.3999999999999999 -1.4 0  0.5 -1.4 0  0.6000000000000001 -1.4 0  0.7000000000000002 -1.4 0  0.7999999999999998 -1.4 0  0.8999999999999999 -1.4 0  1 -1.4 0  1.1 -1.4 0  1.2 -1.4 0  1.3 -1.4 0  1.4 -1.4 0  1.5 -1.4 0  1.6 -1.4 0  1.7 -1.4 0  1.8 -1.4 0  1.9 -1.4 0  2 -1.4 0  -2 -1.3 0  -1.9 -1.3 0  -1.8 -1.3 0  -1.7 -1.3 0  -1.6 -1.3 0  -1.5 -1.3 0  -1.4 -1.3 0  -1.3 -1.3 0  -1.2 -1.3 0  -1.1 -1.3 0  -1 -1.3 0  -0.8999999999999999 -1.3 0  -0.8 -1.3 0  -0.7 -1.3 0  -0.6000000000000001 -1.3 0  -0.5 -1.3 0  -0.3999999999999999 -1.3 0  -0.3 -1.3 0  -0.2 -1.3 0  -0.1000000000000001 -1.3 0  0 -1.3 0  0.1000000000000001 -1.3 0  0.2000000000000002 -1.3 0  0.2999999999999998 -1.3 0  0.3999999999999999 -1.3 0  0.5 -1.3 0  0.6000000000000001 -1.3 0  0.7000000000000002 -1.3 0  0.7999999999999998 -1.3 0  0.8999999999999999 -1.3 0  1 -1.3 0  1.1 -1.3 0  1.2 -1.3 0  1.3 -1.3 0  1.4 -1.3 0  1.5 -1.3 0  1.6 -1.3 0  1.7 -1.3 0  1.8 -1.3 0  1.9 -1.3 0  2 -1.3 0  -2 -1.2 0  -1.9 -1.2 0  -1.8 -1.2 0  -1.7 -1.2 0  -1.6 -1.2 0  -1.5 -1.2 0  -1.4 -1.2 0  -1.3 -1.2 0  -1.2 -1.2 0  -1.1 -1.2 0  -1 -1.2 0  -0.8999999999999999 -1.2 0  -0.8 -1.2 0  -0.7 -1.2 0  -0.6000000000000001 -1.2 0  -0.5 -1.2 0  -0.3999999999999999 -1.2 0  -0.3 -1.2 0  -0.2 -1.2 0  -0.1000000000000001 -1.2 0  0 -1.2 0  0.1000000000000001 -1.2 0  0.2000000000000002 -1.2 0  0.2999999999999998 -1.2 0  0.3999999999999999 -1.2 0  0.5 -1.2 0  0.6000000000000001 -1.2 0  0.7000000000000002 -1.2 0  0.7999999999999998 -1.2 0  0.8999999999999999 -1.2 0  1 -1.2 0  1.1 -1.2 0  1.2 -1.2 0  1.3 -1.2 0  1.4 -1.2 0  1.5 -1.2 0  1.6 -1.2 0  1.7 -1.2 0  1.8 -1.2 0  1.9 -1.2 0  2 -1.2 0  -2 -1.1 0  -1.9 -1.1 0  -1.8 -1.1 0  -1.7 -1.1 0  -1.6 -1.1 0  -1.5 -1.1 0  -1.4 -1.1 0  -1.3 -1.1 0  -1.2 -1.1 0  -1.1 -1.1 0  -1 -1.1 0  -0.8999999999999999 -1.1 0  -0.8 -1.1 0  -0.7 -1.1 0  -0.6000000000000001 -1.1 0  -0.5 -1.1 0  -0.3999999999999999 -1.1 0  -0.3 -1.1 0  -0.2 -1.1 0  -0.1000000000000001 -1.1 0  0 -1.1 0  0.1000000000000001 -1.1 0  0.2000000000000002 -1.1 0  0.2999999999999998 -1.1 0  0.3999999999999999 -1.1 0  0.5 -1.1 0  0.6000000000000001 -1.1 0  0.7000000000000002 -1.1 0  0.7999999999999998 -1.1 0  0.8999999999999999 -1.1 0  1 -1.1 0  1.1 -1.1 0  1.2 -1.1 0  1.3 -1.1 0  1.4 -1.1 0  1.5 -1.1 0  1.6 -1.1 0  1.7 -1.1 0  1.8 -1.1 0  1.9 -1.1 0  2 -1.1 0  -2 -1 0  -1.9 -1 0  -1.8 -1 0  -1.7 -1 0  -1.6 -1 0  -1.5 -1 0  -1.4 -1 0  -1.3 -1 0  -1.2 -1 0  -1.1 -1 0  -1 -1 0  -0.8999999999999999 -1 0  -0.8 -1 0  -0.7 -1 0  -0.6000000000000001 -1 0  -0.5 -1 0  -0.3999999999999999 -1 0  -0.3 -1 0  -0.2 -1 0  -0.1000000000000001 -1 0  0 -1 0  0.1000000000000001 -1 0  0.2000000000000002 -1 0  0.2999999999999998 -1 0  0.3999999999999999 -1 0  0.5 -1 0  0.6000000000000001 -1 0  0.7000000000000002 -1 0  0.7999999999999998 -1 0  0.8999999999999999 -1 0  1 -1 0  1.1 -1 0  1.2 -1 0  1.3 -1 0  1.4 -1 0  1.5 -1 0  1.6 -1 0  1.7 -1 0  1.8 -1 0  1.9 -1 0  2 -1 0  -2 -0.8999999999999999 0  -1.9 -0.8999999999999999 0  -1.8 -0.8999999999999999 0  -1.7 -0.8999999999999999 0  -1.6 -0.8999999999999999 0  -1.5 -0.8999999999999999 0  -1.4 -0.8999999999999999 0  -1.3 -0.8999999999999999 0  -1.2 -0.8999999999999999 0  -1.1 -0.8999999999999999 0  -1 -0.8999999999999999 0  -0.8999999999999999 -0.8999999999999999 0  -0.8 -0.8999999999999999 0  -0.7 -0.8999999999999999 0  -0.6000000000000001 -0.8999999999999999 0  -0.5 -0.8999999999999999 0  -0.3999999999999999 -0.8999999999999999 0  -0.3 -0.8999999999999999 0  -0.2 -0.8999999999999999 0  -0.1000000000000001 -0.8999999999999999 0  0 -0.8999999999999999 0  0.1000000000000001 -0.8999999999999999 0  0.2000000000000002 -0.8999999999999999 0  0.2999999999999998 -0.8999999999999999 0  0.3999999999999999 -0.8999999999999999 0  0.5 -0.8999999999999999 0  0.6000000000000001 -0.8999999999999999 0  0.7000000000000002 -0.8999999999999999 0  0.7999999999999998 -0.8999999999999999 0  0.8999999999999999 -0.8999999999999999 0  1 -0.8999999999999999 0  1.1 -0.8999999999999999 0  1.2 -0.8999999999999999 0  1.3 -0.8999999999999999 0  1.4 -0.8999999999999999 0  1.5 -0.8999999999999999 0  1.6 -0.8999999999999999 0  1.7 -0.8999999999999999 0  1.8 -0.8999999999999999 0  1.9 -0.8999999999999999 0  2 -0.8999999999999999 0  -2 -0.8 0  -1.9 -0.8 0  -1.8 -0.8 0  -1.7 -0.8 0  -1.6 -0.8 0  -1.5 -0.8 0  -1.4 -0.8 0  -1.3 -0.8 0  -1.2 -0.8 0  -1.1 -0.8 0  -1 -0.8 0  -0.8999999999999999 -0.8 0  -0.8 -0.8 0  -0.7 -0.8 0  -0.6000000000000001 -0.8 0  -0.5 -0.8 0  -0.3999999999999999 -0.8 0  -0.3 -0.8 0  -0.2 -0.8 0  -0.1000000000000001 -0.8 0  0 -0.8 0  0.1000000000000001 -0.8 0  0.2000000000000002 -0.8 0  0.2999999999999998 -0.8 0  0.3999999999999999 -0.8 0  0.5 -0.8 0  0.6000000000000001 -0.8 0  0.7000000000000002 -0.8 0  0.7999999999999998 -0.8 0  0.8999999999999999 -0.8 0  1 -0.8 0  1.1 -0.8 0  1.2 -0.8 0  1.3 -0.8 0  1.4 -0.8 0  1.5 -0.8 0  1.6 -0.8 0  1.7 -0.8 0  1.8 -0.8 0  1.9 -0.8 0  2 -0.8 0  -2 -0.7 0  -1.9 -0.7 0  -1.8 -0.7 0  -1.7 -0.7 0  -1.6 -0.7 0  -1.5 -0.7 0  -1.4 -0.7 0  -1.3 -0.7 0  -1.2 -0.7 0  -1.1 -0.7 0  -1 -0.7 0  -0.8999999999999999 -0.7 0  -0.8 -0.7 0  -0.7 -0.7 0  -0.6000000000000001 -0.7 0  -0.5 -0.7 0  -0.3999999999999999 -0.7 0  -0.3 -0.7 0  -0.2 -0.7 0  -0.1000000000000001 -0.7 0  0 -0.7 0  0.1000000000000001 -0.7 0  0.2000000000000002 -0.7 0  0.2999999999999998 -0.7 0  0.3999999999999999 -0.7 0  0.5 -0.7 0  0.600000000000000
[...]
<PointData  Scalars="f_1726"> 
<DataArray  type="Float64"  Name="f_1726"  format="ascii">0.0000000000000000e+00  0.0000000000000000e+00  0.0000000000000000e+00  0.0000000000000000e+00  0.0000000000000000e+00  0.0000000000000000e+00  0.0000000000000000e+00  0.0000000000000000e+00  0.0000000000000000e+00  0.0000000000000000e+00  0.0000000000000000e+00  0.0000000000000000e+00  0.0000000000000000e+00  0.0000000000000000e+00  0.0000000000000000e+00  0.0000000000000000e+00  0.0000000000000000e+00  0.0000000000000000e+00  0.0000000000000000e+00  0.0000000000000000e+00  0.0000000000000000e+00  0.0000000000000000e+00  0.0000000000000000e+00  0.0000000000000000e+00  0.0000000000000000e+00  0.0000000000000000e+00  0.0000000000000000e+00  0.0000000000000000e+00  0.0000000000000000e+00  0.0000000000000000e+00  0.0000000000000000e+00  0.0000000000000000e+00  0.0000000000000000e+00  0.0000000000000000e+00  0.0000000000000000e+00  0.0000000000000000e+00  0.0000000000000000e+00  0.0000000000000000e+00  0.0000000000000000e+00  0.0000000000000000e+00  0.0000000000000000e+00  0.0000000000000000e+00  -7.2374091404174635e-13  -8.4341814916790144e-13  5.5423405630331311e-12  -1.3355469324933899e-12  -2.8070019091077087e-11  1.5123306406849005e-11  1.3811251054549381e-10  1.9001882931322206e-11  -5.7327995334155324e-10  -1.1439036217684176e-09  -1.0082982319383998e-09  -3.4753159747917322e-10  9.4054611624282094e-11  9.5287150932475959e-11  -9.0445036320676829e-12  -1.8263615632106143e-11  3.0598574937284588e-12  2.8110206682199380e-12  -1.0930963267865087e-12  -1.9970526588240848e-13  2.3798889065304936e-13  -4.6686166232263884e-14  -2.0353753774916008e-14  1.5203963416150791e-14  -3.3378210358294534e-15  -7.5832460662265929e-16  8.3762341270708424e-16  -3.0046697706392970e-16  3.5265707130036722e-17  2.2576411538169127e-17  -1.6826675603761354e-17  6.3058568872054829e-18  -1.3945154574814319e-18  1.1545867298382577e-20  1.6350567711469063e-19  -9.8354908308987765e-20  4.0017592447836139e-20  -1.3265445416773514e-20  4.2050594948595753e-21  0.0000000000000000e+00  0.0000000000000000e+00  -8.4341814916790285e-13  6.0655256033212281e-12  -5.3958824218356723e-12  -2.6571522167370786e-11  5.5799771901411840e-11  1.0428861140289758e-10  -3.0045580498151106e-10  -5.8690786736438287e-10  8.7512152731593681e-10  3.7507601196258332e-09  4.8965836889072239e-09  2.8677911638931780e-09  2.3195225930085384e-10  -5.5593080151213880e-10  -1.2636429099242674e-10  1.0321289524954935e-10  1.7461926030616004e-11  -2.0675378996346080e-11  9.4391280501594282e-13  3.2411781588005711e-12  -1.0922923737867534e-12  -1.5796871907228113e-13  2.2784291206977852e-13  -6.5904914873569270e-14  -6.1396611130576926e-15  1.2370666373699933e-14  -4.9334080955295507e-15  6.8617840307229594e-16  3.2656240240911749e-16  -2.6303780941268111e-16  9.9093175936218169e-17  -2.1156926335725364e-17  -3.9507027463846049e-19  2.7897720943169284e-18  -1.5826601523977806e-18  6.1873037366422577e-19  -1.9565399507894397e-19  5.3148452559806961e-20  -1.3265445416773529e-20  0.0000000000000000e+00  0.0000000000000000e+00  5.5423405630331368e-12  -5.3958824218356707e-12  -2.4293032670537184e-11  7.1945206582209180e-11  3.9692232445862748e-11  -4.2681818061674968e-10  2.6484097376643785e-11  2.1321481886781620e-09  8.0972231759893474e-10  -8.6730314081281061e-09  -1.8457499059505350e-08  -1.6361359926656773e-08  -5.3096387824377941e-09  1.7445958647374471e-09  1.4211350391710043e-09  -2.5252914045688204e-10  -2.5431414787589883e-10  7.5051899229834414e-11  3.0092765992233695e-11  -1.9806271797982151e-11  8.0681192858334659e-13  2.8803646422615972e-12  -1.1813724738136775e-12  3.5119410053630549e-14  1.5982600710745268e-13  -7.7494556848839016e-14  1.4275514972913353e-14  3.6258984837425891e-15  -3.7940634786610168e-15  1.5374925368553553e-15  -3.5162710446112363e-16  4.0424120710684871e-18  4.0532081397142376e-17  -2.4035326153723023e-17  9.5425756323188960e-18  -3.0468119987162662e-18  8.2564105892716821e-19  -1.9565399507894307e-19  4.0017592447836012e-20  0.0000000000000000e+00  0.0000000000000000e+00  -1.3355469324933903e-12  -2.6571522167370812e-11  7.1945206582209206e-11  1.3502145469241951e-11  -4.3716871024616527e-10  4.9780971460660555e-10  1.9081010773160515e-09  -3.4799573093320308e-09  -9.6145521108596555e-09  1.0453311672562751e-08  5.5544224491654434e-08  7.4864909784143652e-08  4.2888342849321395e-08  1.9787730693243754e-09  -8.5171873203031262e-09  -1.2044752978098846e-09  1.6082508965158178e-09  4.8401175871148799e-11  -2.8617883185860638e-10  5.9597263996961601e-11  2.9344591124353131e-11  -1.9165467008731076e-11  2.5715171479884376e-12  1.8445694698097569e-12  -1.1771782471810606e-12  2.7669201481260399e-13  3.1137071859283109e-14  -5.3501773244627062e-14  2.3807028421908198e-14  -5.8845823032346455e-15  2.4849464693248249e-16  5.8254660007348968e-16  -3.6661854896472685e-16  1.4849692550757271e-16  -4.7829247656986770e-17  1.3008889618860466e-17  -3.0468119987162808e-18  6.1873037366422654e-19  -9.8354908308988186e-20  0.0000000000000000e+00  0.0000000000000000e+00  -2.8070019091077126e-11  5.5799771901411892e-11  3.9692232445862800e-11  -4.3716871024616538e-10  6.5019349950685041e-10  1.4383656358566168e-09  -5.4942931134787478e-09  -3.0543025000547681e-09  2.9640601820307968e-08  2.0407942583679354e-08  -1.2071863580333850e-07  -2.7901544647684341e-07  -2.4867983692880452e-07  -7.4283879239148837e-08  3.0222631608203971e-08  1.8935068049194839e-08  -5.4701406269766524e-09  -2.9158533163323667e-09  1.4312664234164306e-09  1.5408565134636408e-10  -2.7594980630334338e-10  6.7887235581874758e-11  1.6882648923267161e-11  -1.7047017131167024e-11  5.0416393742748114e-12  6.6166402669970392e-14  -7.3053288814496204e-13  3.6521079472597631e-13  -9.7912032401978573e-14  6.9347654598255479e-15  8.2557595409010976e-15  -5.5823136073626005e-15  2.3119451564154371e-15  -7.5135203289877047e-16  2.0480683550049403e-16  -4.7829247656986696e-17  9.5425756323189176e-18  -1.5826601523977780e-18  1.6350567711469053e-19  0.0000000000000000e+00  0.0000000000000000e+00  1.5123306406849063e-11  1.0428861140289765e-10  -4.2681818061675004e-10  4.9780971460660576e-10  1.4383656358566160e-09  -5.9350083981354407e-09  1.6072303673793736e-09  3.1284851396800943e-08  -3.3608436487450023e-08  -1.5282725777170806e-07  1.1116636417845251e-07  8.1748474721023437e-07  1.1447676592122575e-06  6.3772971616492161e-07  3.1152526980330696e-09  -1.2801305507367523e-07  -6.0343409322192332e-09  2.3436404978662713e-08  -2.6257825930061590e-09  -3.3042344700244578e-09  1.3698156168658344e-09  5.6716448508626596e-11  -2.2994378228165118e-10  8.7079740880802521e-11  -5.7669129939558598e-12  -9.4922087298266478e-12  5.5295177848585078e-12  -1.6181018318557616e-12  1.5881993429564929e-13  1.1459406432847743e-13  -8.4729405925280914e-14  3.5993939556028846e-14  -1.1814600497689703e-14  3.2277871889723466e-15  -7.5135203289877047e-16  1.4849692550757252e-16  -2.4035326153723090e-17  2.7897720943169288e-18  1.1545867298381018e-20  0.0000000000000000e+00  0.0000000000000000e+00  1.3811251054549391e-10  -3.0045580498151152e-10  2.6484097376644506e-11  1.9081010773160524e-09  -5.4942931134787478e-09  1.6072303673793765e-09  2.9763601650804291e-08  -5.9405192474129673e-08  -9.4342117373515801e-08  3.8939453807352036e-07  4.3292261964479029e-07  -1.6483017204373890e-06  -4.2310463679054824e-06  -3.7931862386868292e-06  -1.0162264361653024e-06  5.1721706188906182e-07  2.3598121498974141e-07  -1.0416129308373268e-07  -2.5695506014907626e-08  2.2993749795897406e-08  -2.4444638838370605e-09  -2.7484634662587305e-09  1.4233284056404395e-09  -1.9711831465270908e-10  -1.1343091686608044e-10  8.2218217634781736e-11  -2.6534901111239349e-11  3.3176569782306719e-12  1.5432467717547575e-12  -1.2807609552860798e-12  5.6033995032390471e-13  -1.8599900353393829e-13  5.0942894233545709e-14  -1.1814600497689724e-14  2.3119451564154410e-15  -3.6661854896472739e-16  4.0532081397142592e-17  -3.9507027463848620e-19  -1.3945154574814269e-18  0.0000000000000000e+00  0.0000000000000000e+00  1.9001882931322086e-11  -5.8690786736438287e-10  2.1321481886781645e-09  -3.4799573093320362e-09  -3.0543025000547648e-09  3.1284851396800936e-08  -5.9405192474129687e-08  -6.4090187217691018e-08  4.5641488357158744e-07  -1.8412301197390668e-07  -2.3510674620723817e-06  8.9718485739565479e-07  1.1997390684243502e-05  1.7606868751569700e-05  9.4621262277971732e-06  -4.2201806141979718e-07  -1.8781156239201280e-06  1.1076938950206622e-07  3.0934469625276716e-07  -8.4964737428196045e-08  -2.5179292614829645e-08  2.1721618387382635e-08  -4.6837025803262282e-09  -1.1440349918143797e-09  1.1909538972506716e-09  -4.3106081028201554e-10  6.5694692948579141e-11  1.9828520744554752e-11  -1.9255780127648202e-11  8.7216938340123714e-12  -2.9322412697517732e-12  8.0534415515138616e-13  -1.8599900353393761e-13  3.5993939556028745e-14  -5.5823136073625800e-15  5.8254660007348603e-16  4.0424120710689208e-18  -2.1156926335725330e-17  6.3058568872054668e-18  0.0000000000000000e+00  0.0000000000000000e+00  -5.7327995334155345e-10  8.7512152731593764e-10  8.0972231759893370e-10  -9.6145521108596604e-09  2.9640601820308005e-08  -3.3608436487450089e-08  -9.4342117373515801e-08  4.5641488357158776e-07  -4.0773045660760254e-07  -2.0060766950064502e-06  4.6271696440245368e-06  8.3991788439911374e-06  -2.1828978282259320e-05  -6.4446437357169523e-05  -5.8146286908399933e-05  -1.3396693500649126e-05  8.7355788318909794e-06  2.5763485227880285e-06  -1.7902036917182121e-06  -5.2636538693731897e-08  2.9879276277756799e-07  -9.5008503450469695e-08  -6.7004773984170125e-09  1.6571301887147332e-08  -6.9168260984729179e-09  1.2556726963909195e-09  2.3481975669381564e-10  -2.8741072754384799e-10  1.3570888716690962e-10  -4.6300560658738042e-11  1.2756249685170823e-11  -2.9322412697517858e-12  5.6033995032390572e-13  -8.4729405925281331e-14  8.2557595409011765e-15  2.4849464693246588e-16  -3.5162710446112195e-16  9.9093175936217614e-17  -1.6826675603761293e-17  0.0000000000000000e+00  0.0000000000000000e+00  -1.1439036217684172e-09  3.7507601196258307e-09  -8.6730314081281094e-09  1.0453311672562763e-08  2.0407942583679354e-08  -1.5282725777170821e-07  3.8939453807352094e-07  -1.8412301197390745e-07  -2.0060766950064514e-06  5.5657444958398443e-06  2.5077456387234956e-06  -3.4487442125322969e-05  2.1639686582389996e-07  1.7521462906424883e-04  2.7295396029522869e-04  1.3981264013258649e-04  -1.4754878578642621e-05  -2.6409985384741835e-05  4.8840882938724085e-06  3.3596465788204973e-06  -1.7169818645252374e-06  8.9465042535221042e-08  2.1545075581900164e-07  -1.0907465283416293e-07  2.3388246614165855e-08  2.3410208723624785e-09  -4.2467859078554203e-09  2.1104082679938429e-09  -7.3248351000137732e-10  2.0252015077562163e-10  -4.6300560658737990e-11  8.7216938340123940e-12  -1.2807609552860783e-12  1.1459406432847741e-13  6.9347654598255668e-15  -5.8845823032346408e-15  1.5374925368553590e-15  -2.6303780941268081e-16  2.2576411538169130e-17  0.0000000000000000e+00  0.0000000000000000e+00  -1.0082982319383990e-09  4.8965836889072205e-09  -1.8457499059505346e-08  5.5544224491654407e-08  -1.2071863580333855e-07  1.1116636417845265e-07  4.3292261964479040e-07  -2.3510674620723842e-06  4.6271696440245444e-06  2.5077456387234905e-06  -3.4627863608743307e-05  4.3813393232394484e-05  1.5314736301944682e-04  -2.7360773218866336e-04  -9.8754725357770579e-04  -8.9728551649903749e-04  -1.6459843626842212e-04  1.4488294700996783e-04  1.9432681632183043e-05  -2.7221343841794347e-05  4.6128343619434462e-06  2.4506489658937561e-06  -1.6748048962180595e-06  4.2653141223613387e-07  1.2753887683739027e-08  -6.1837697900604089e-08  3.2787125922580197e-08  -1.1614516515357185e-08  3.2242424041189413e-09  -7.3248351000137752e-10  1.3570888716690956e-10  -1.9255780127648273e-11  1.5432467717547629e-12  1.5881993429564787e-13  -9.7912032401978220e-14  2.3807028421908091e-14  -3.7940634786610089e-15  3.2656240240911448e-16  3.5265707130037123e-17  0.0000000000000000e+00  0.0000000000000000e+00  -3.4753159747917296e-10  2.8677911638931767e-09  -1.6361359926656763e-08  7.4864909784143639e-08  -2.7901544647684336e-07  8.1748474721023448e-07  -1.6483017204373894e-06  8.9718485739565892e-07  8.3991788439911425e-06  -3.4487442125323010e-05  4.3813393232394532e-05  1.1649377137970063e-04  -4.6515576602610645e-04  -2.2888272268063834e-04  2.5356888687782047e-03  4.2799574698571558e-03  2.0488377131395860e-03  -3.7570006728955942e-04  -3.4107122403113742e-04  1.1945174038780016e-04  1.9259340145984519e-05  -2.4578706377306312e-05  7.6236857062297653e-06  -2.3448641265397729e-07  -8.8037928690235659e-07  5.0854926638376053e-07  -1.8467989729903721e-07  5.1509299175615011e-08  -1.1614516515357205e-08  2.1104082679938483e-09  -2.8741072754384872e-10  1.9828520744554943e-11  3.3176569782306497e-12  -1.6181018318557593e-12  3.6521079472597590e-13  -5.3501773244626955e-14  3.6258984837425891e-15  6.8617840307229564e-16  -3.0046697706392951e-16  0.0000000000000000e+00  0.0000000000000000e+00  9.4054611624282275e-11  2.3195225930085275e-10  -5.3096387824377875e-09  4.2888342849321336e-08  -2.4867983692880441e-07  1.1447676592122569e-06  -4.2310463679054807e-06  1.1997390684243502e-05  -2.1828978282259344e-05  2.1639686582394086e-07  1.5314736301944698e-04  -4.6515576602610672e-04  1.3909018598477676e-04  2.6284867550751883e-03  -3.0450348620834015e-03  -1.5262745997303874e-02  -1.3977552678019504e-02  -1.7108443875464921e-03  2.3263319509657576e-03  -8.4357872464704736e-05  -3.3008796561961716e-04  1.3303821647813369e-04  -1.1691885890183455e-05  -1.2073118418948959e-05  7.8660439114242579e-06  -2.9468850096463609e-06  8.2649303704355612e-07  -1.8467989729903652e-07  3.2787125922580098e-08  -4.2467859078554029e-09  2.3481975669381341e-10  6.5694692948579516e-11  -2.6534901111239294e-11  5.5295177848584900e-12  -7.3053288814495810e-13  3.1137071859282409e-14  1.4275514972913479e-14  -4.9334080955295522e-15  8.3762341270708394e-16  0.0000000000000000e+00  0.0000000000000000e+00  9.5287150932475946e-11  -5.5593080151213901e-10  1.7445958647374490e-09  1.9787730693243705e-09  -7.4283879239148797e-08  6.3772971616492151e-07  -3.7931862386868279e-06  1.7606868751569696e-05  -6.4446437357169496e-05  1.7521462906424899e-04  -2.7360773218866374e-04  -2.2888272268063880e-04  2.6284867550751901e-03  -5.1645878283617585e-03  -7.5707504047072592e-03  3.6003737233444084e-02  6.8309042686419311e-02  2.9479903605354924e-02  -8.5078633880362967e-03  -3.5366387067046192e-03  2.2356560950566855e-03  -3.3380129663535603e-04  -1.5429816610537436e-04  1.2107114889499007e-04  -4.7236696870731611e-05  1.3337264873379855e-05  -2.9468850096463753e-06  5.0854926638376159e-07  -6.1837697900604473e-08  2.3410208723625505e-09  1.2556726963909044e-09  -4.3106081028201446e-10  8.2218217634781271e-11  -9.4922087298265929e-12  6.6166402669964106e-14  2.7669201481260419e-13  -7.7494556848839167e-14  1.2370666373699900e-14  -7.5832460662265496e-16  0.0000000000000000e+00  0.0000000000000000e+00  -9.0445036320677443e-12  -1.2636429099242651e-10  1.4211350391710039e-09  -8.5171873203031262e-09  3.0222631608204011e-08  3.1152526980328437e-09  -1.0162264361653015e-06  9.4621262277971732e-06  -5.8146286908399913e-05  2.7295396029522858e-04  -9.8754725357770622e-04  2.5356888687782073e-03  -3.0450348620834032e-03  -7.5707504047072627e-03  4.1056178803875347e-02  -2.3080278824734804e-02  -2.3902124644247733e-01  -2.2089889171033478e-01  -8.5151572912392018e-03  3.4617161950703045e-02  -8.0948819476344726e-03  -1.6713098101859597e-03  1.8461581558418142e-03  -7.6181747845816895e-04  2.1689915071047169e-04  -4.7236696870731550e-05  7.8660439114242766e-06  -8.8037928690235543e-07  1.2753887683738956e-08  2.3388246614165872e-08  -6.9168260984729113e-09  1.1909538972506743e-09  -1.1343091686608031e-10  -5.7669129939558743e-12  5.0416393742748114e-12  -1.1771782471810590e-12  1.5982600710745291e-13  -6.1396611130576579e-15  -3.3378210358294542e-15  0.0000000000000000e+00  0.0000000000000000e+00  -1.8263615632106159e-11  1.0321289524954952e-10  -2.5252914045688313e-10  -1.2044752978098792e-09  1.8935068049194829e-08  -1.2801305507367536e-07  5.1721706188906288e-07  -4.2201806141980416e-07  -1.3396693500649092e-05  1.3981264013258632e-04  -8.9728551649903717e-04  4.2799574698571550e-03  -1.5262745997303880e-02  3.6003737233444091e-02  -2.3080278824734794e-02  -1.8663622974623770e-01  4.8696169015893792e-01  1.1248534755535371e+00  4.0399910841840964e-01  -1.8030037079559053e-01  -8.9155304713326028e-03  2.7599317794913689e-02  -1.2393528982009711e-02  3.5668391865398778e-03  -7.6181747845816895e-04  1.2107114889498999e-04  -1.2073118418949008e-05  -2.3448641265397001e-07  4.2653141223613228e-07  -1.0907465283416253e-07  1.6571301887147236e-08  -1.1440349918143681e-09  -1.9711831465271114e-10  8.7079740880802883e-11  -1.7047017131167066e-11  1.8445694698097589e-12  3.5119410053630436e-14  -6.5904914873569181e-14  1.5203963416150788e-14  0.0000000000000000e+00  0.0000000000000000e+00  3.0598574937284709e-12  1.7461926030615965e-11  -2.5431414787589888e-10  1.6082508965158195e-09  -5.4701406269766689e-09  -6.0343409322191522e-09  2.3598121498974123e-07  -1.8781156239201271e-06  8.7355788318909862e-06  -1.4754878578642663e-05  -1.6459843626842182e-04  2.0488377131395851e-03  -1.3977552678019497e-02  6.8309042686419338e-02  -2.3902124644247746e-01  4.8696169015893814e-01  2.0122760925474695e-01  -3.8305361653089474e+00  -3.5794219932565077e+00  3.1250687260577054e-01  3.9201204243181009e-01  -2.0433373972514107e-01  5.9681742761771933e-02  -1.2393528982009733e-02  1.8461581558418191e-03  -1.5429816610537520e-04  -1.1691885890183336e-05  7.6236857062297323e-06  -1.6748048962180566e-06  2.1545075581900132e-07  -6.7004773984169951e-09  -4.6837025803262398e-09  1.4233284056404387e-09  -2.2994378228165121e-10  1.6882648923267093e-11  2.5715171479884461e-12  -1.1813724738136825e-12  2.2784291206977857e-13  -2.0353753774916037e-14  0.0000000000000000e+00  0.0000000000000000e+00  2.8110206682199376e-12  -2.0675378996346093e-11  7.5051899229834556e-11  4.8401175871147946e-11  -2.9158533163323646e-09  2.3436404978662723e-08  -1.0416129308373284e-07  1.1076938950206707e-07  2.5763485227880238e-06  -2.6409985384741838e-05  1.4488294700996791e-04  -3.7570006728956023e-04  -1.7108443875464869e-03  2.9479903605354896e-02  -2.2089889171033472e-01  1.1248534755535375e+00  -3.8305361653089482e+00  5.4416577428982000e+00  1.9863252312115325e+01  4.5344636591806236e+00  -3.4482919061992510e+00  1.0297499457891688e+00  -2.0433373972514030e-01  2.7599317794913588e-02  -1.6713098101859487e-03  -3.3380129663535630e-04  1.3303821647813393e-04  -2.4578706377306244e-05  2.4506489658937455e-06  8.9465042535223173e-08  -9.5008503450469946e-08  2.1721618387382738e-08  -2.7484634662587351e-09  5.6716448508627488e-11  6.7887235581874590e-11  -1.9165467008731015e-11  2.8803646422615960e-12  -1.5796871907227969e-13  -4.6686166232264017e-14  0.0000000000000000e+00  0.0000000000000000e+00  -1.0930963267865106e-12  9.4391280501595312e-13  3.0092765992233676e-11  -2.8617883185860638e-10  1.4312664234164316e-09  -2.6257825930061660e-09  -2.5695506014907610e-08  3.0934469625276726e-07  -1.7902036917182134e-06  4.8840882938724161e-06  1.9432681632183036e-05  -3.4107122403113764e-04  2.3263319509657589e-03  -8.5078633880363071e-03  -8.5151572912391567e-03  4.0399910841840964e-01  -3.5794219932565090e+00  1.9863252312115339e+01  -6.4607642320596170e+01  -6.1267953360416293e+01  1.9032775898508643e+01  -3.4482919061992652e+00  3.9201204243181154e-01  -8.9155304713329532e-03  -8.0948819476344084e-03  2.2356560950566721e-03  -3.3008796561961613e-04  1.9259340145984228e-05  4.6128343619434860e-06  -1.7169818645252431e-06  2.9879276277756852e-07  -2.5179292614829758e-08  -2.4444638838370559e-09  1.3698156168658353e-09  -2.759498063033435