<?xml version="1.0"?>
<VTKFile type="UnstructuredGrid"  version="0.1"  >
<UnstructuredGrid>
<Piece  NumberOfPoints="1681" NumberOfCells="3200">
<Points>
<DataArray  type="Float64"  NumberOfComponents="3"  format="ascii">-2 -2 0  -1.9 -2 0  -1.8 -2 0  -1.7 -2 0  -1.6 -2 0  -1.5 -2 0  -1.4 -2 0  -1.3 -2 0  -1.2 -2 0  -1.1 -2 0  -1 -2 0  -0.8999999999999999 -2 0  -0.8 -2 0  -0.7 -2 0  -0.6000000000000001 -2 0  -0.5 -2 0  -0.3999999999999999 -2 0  -0.3 -2 0  -0.2 -2 0  -0.1000000000000001 -2 0  0 -2 0  0.1000000000000001 -2 0  0.2000000000000002 -2 0  0.2999999999999998 -2 0  0.3999999999999999 -2 0  0.5 -2 0  0.6000000000000001 -2 0  0.7000000000000002 -2 0  0.7999999999999998 -2 0  0.8999999999999999 -2 0  1 -2 0  1.1 -2 0  1.2 -2 0  1.3 -2 0  1.4 -2 0  1.5 -2 0  1.6 -2 0  1.7 -2 0  1.8 -2 0  1.9 -2 0  2 -2 0  -2 -1.9 0  -1.9 -1.9 0  -1.8 -1.9 0  -1.7 -1.9 0  -1.6 -1.9 0  -1.5 -1.9 0  -1.4 -1.9 0  -1.3 -1.9 0  -1.2 -1.9 0  -1.1 -1.9 0  -1 -1.9 0  -0.8999999999999999 -1.9 0  -0.8 -1.9 0  -0.7 -1.9 0  -0.6000000000000001 -1.9 0  -0.5 -1.9 0  -0.3999999999999999 -1.9 0  -0.3 -1.9 0  -0.2 -1.9 0  -0.1000000000000001 -1.9 0  0 -1.9 0  0.1000000000000001 -1.9 0  0.2000000000000002 -1.9 0  0.2999999999999998 -1.9 0  0.3999999999999999 -1.9 0  0.5 -1.9 0  0.6000000000000001 -1.9 0  0.7000000000000002 -1.9 0  0.7999999999999998 -1.9 0  0.8999999999999999 -1.9 0  1 -1.9 0  1.1 -1.9 0  1.2 -1.9 0  1.3 -1.9 0  1.4 -1.9 0  1.5 -1.9 0  1.6 -1.9 0  1.7 -1.9 0  1.8 -1.9 0  1.9 -1.9 0  2 -1.9 0  -2 -1.8 0  -1.9 -1.8 0  -1.8 -1.8 0  -1.7 -1.8 0  -1.6 -1.8 0  -1.5 -1.8 0  -1.4 -1.8 0  -1.3 -1.8 0  -1.2 -1.8 0  -1.1 -1.8 0  -1 -1.8 0  -0.8999999999999999 -1.8 0  -0.8 -1.8 0  -0.7 -1.8 0  -0.6000000000000001 -1.8 0  -0.5 -1.8 0  -0.3999999999999999 -1.8 0  -0.3 -1.8 0  -0.2 -1.8 0  -0.1000000000000001 -1.8 0  0 -1.8 0  0.1000000000000001 -1.8 0  0.2000000000000002 -1.8 0  0.2999999999999998 -1.8 0  0.3999999999999999 -1.8 0  0.5 -1.8 0  0.6000000000000001 -1.8 0  0.7000000000000002 -1.8 0  0.7999999999999998 -1.8 0  0.8999999999999999 -1.8 0  1 -1.8 0  1.1 -1.8 0  1.2 -1.8 0  1.3 -1.8 0  1.4 -1.8 0  1.5 -1.8 0  1.6 -1.8 0  1.7 -1.8 0  1.8 -1.8 0  1.9 -1.8 0  2 -1.8 0  -2 -1.7 0  -1.9 -1.7 0  -1.8 -1.7 0  -1.7 -1.7 0  -1.6 -1.7 0  -1.5 -1.7 0  -1.4 -1.7 0  -1.3 -1.7 0  -1.2 -1.7 0  -1.1 -1.7 0  -1 -1.7 0  -0.8999999999999999 -1.7 0  -0.8 -1.7 0  -0.7 -1.7 0  -0.6000000000000001 -1.7 0  -0.5 -1.7 0  -0.3999999999999999 -1.7 0  -0.3 -1.7 0  -0.2 -1.7 0  -0.1000000000000001 -1.7 0  0 -1.7 0  0.1000000000000001 -1.7 0  0.2000000000000002 -1.7 0  0.2999999999999998 -1.7 0  0.3999999999999999 -1.7 0  0.5 -1.7 0  0.6000000000000001 -1.7 0  0.7000000000000002 -1.7 0  0.7999999999999998 -1.7 0  0.8999999999999999 -1.7 0  1 -1.7 0  1.1 -1.7 0  1.2 -1.7 0  1.3 -1.7 0  1.4 -1.7 0  1.5 -1.7 0  1.6 -1.7 0  1.7 -1.7 0  1.8 -1.7 0  1.9 -1.7 0  2 -1.7 0  -2 -1.6 0  -1.9 -1.6 0  -1.8 -1.6 0  -1.7 -1.6 0  -1.6 -1.6 0  -1.5 -1.6 0  -1.4 -1.6 0  -1.3 -1.6 0  -1.2 -1.6 0  -1.1 -1.6 0  -1 -1.6 0  -0.8999999999999999 -1.6 0  -0.8 -1.6 0  -0.7 -1.6 0  -0.6000000000000001 -1.6 0  -0.5 -1.6 0  -0.3999999999999999 -1.6 0  -0.3 -1.6 0  -0.2 -1.6 0  -0.1000000000000001 -1.6 0  0 -1.6 0  0.1000000000000001 -1.6 0  0.2000000000000002 -1.6 0  0.2999999999999998 -1.6 0  0.3999999999999999 -1.6 0  0.5 -1.6 0  0.6000000000000001 -1.6 0  0.7000000000000002 -1.6 0  0.7999999999999998 -1.6 0  0.8999999999999999 -1.6 0  1 -1.6 0  1.1 -1.6 0  1.2 -1.6 0  1.3 -1.6 0  1.4 -1.6 0  1.5 -1.6 0  1.6 -1.6 0  1.7 -1.6 0  1.8 -1.6 0  1.9 -1.6 0  2 -1.6 0  -2 -1.5 0  -1.9 -1.5 0  -1.8 -1.5 0  -1.7 -1.5 0  -1.6 -1.5 0  -1.5 -1.5 0  -1.4 -1.5 0  -1.3 -1.5 0  -1.2 -1.5 0  -1.1 -1.5 0  -1 -1.5 0  -0.8999999999999999 -1.5 0  -0.8 -1.5 0  -0.7 -1.5 0  -0.6000000000000001 -1.5 0  -0.5 -1.5 0  -0.3999999999999999 -1.5 0  -0.3 -1.5 0  -0.2 -1.5 0  -0.1000000000000001 -1.5 0  0 -1.5 0  0.1000000000000001 -1.5 0  0.2000000000000002 -1.5 0  0.2999999999999998 -1.5 0  0.3999999999999999 -1.5 0  0.5 -1.5 0  0.6000000000000001 -1.5 0  0.7000000000000002 -1.5 0  0.7999999999999998 -1.5 0  0.8999999999999999 -1.5 0  1 -1.5 0  1.1 -1.5 0  1.2 -1.5 0  1.3 -1.5 0  1.4 -1.5 0  1.5 -1.5 0  1.6 -1.5 0  1.7 -1.5 0  1.8 -1.5 0  1.9 -1.5 0  2 -1.5 0  -2 -1.4 0  -1.9 -1.4 0  -1.8 -1.4 0  -1.7 -1.4 0  -1.6 -1.4 0  -1.5 -1.4 0  -1.4 -1.4 0  -1.3 -1.4 0  -1.2 -1.4 0  -1.1 -1.4 0  -1 -1.4 0  -0.8999999999999999 -1.4 0  -0.8 -1.4 0  -0.7 -1.4 0  -0.6000000000000001 -1.4 0  -0.5 -1.4 0  -0.3999999999999999 -1.4 0  -0.3 -1.4 0  -0.2 -1.4 0  -0.1000000000000001 -1.4 0  0 -1.4 0  0.1000000000000001 -1.4 0  0.2000000000000002 -1.4 0  0.2999999999999998 -1.4 0  0.3999999999999999 -1.4 0  0.5 -1.4 0  0.6000000000000001 -1.4 0  0.7000000000000002 -1.4 0  0.7999999999999998 -1.4 0  0.8999999999999999 -1.4 0  1 -1.4 0  1.1 -1.4 0  1.2 -1.4 0  1.3 -1.4 0  1.4 -1.4 0  1.5 -1.4 0  1.6 -1.4 0  1.7 -1.4 0  1.8 -1.4 0  1.9 -1.4 0  2 -1.4 0  -2 -1.3 0  -1.9 -1.3 0  -1.8 -1.3 0  -1.7 -1.3 0  -1.6 -1.3 0  -1.5 -1.3 0  -1.4 -1.3 0  -1.3 -1.3 0  -1.2 -1.3 0  -1.1 -1.3 0  -1 -1.3 0  -0.8999999999999999 -1.3 0  -0.8 -1.3 0  -0.7 -1.3 0  -0.6000000000000001 -1.3 0  -0.5 -1.3 0  -0.3999999999999999 -1.3 0  -0.3 -1.3 0  -0.2 -1.3 0  -0.1000000000000001 -1.3 0  0 -1.3 0  0.1000000000000001 -1.3 0  0.2000000000000002 -1.3 0  0.2999999999999998 -1.3 0  0.3999999999999999 -1.3 0  0.5 -1.3 0  0.6000000000000001 -1.3 0  0.7000000000000002 -1.3 0  0.7999999999999998 -1.3 0  0.8999999999999999 -1.3 0  1 -1.3 0  1.1 -1.3 0  1.2 -1.3 0  1.3 -1.3 0  1.4 -1.3 0  1.5 -1.3 0  1.6 -1.3 0  1.7 -1.3 0  1.8 -1.3 0  1.9 -1.3 0  2 -1.3 0  -2 -1.2 0  -1.9 -1.2 0  -1.8 -1.2 0  -1.7 -1.2 0  -1.6 -1.2 0  -1.5 -1.2 0  -1.4 -1.2 0  -1.3 -1.2 0  -1.2 -1.2 0  -1.1 -1.2 0  -1 -1.2 0  -0.8999999999999999 -1.2 0  -0.8 -1.2 0  -0.7 -1.2 0  -0.6000000000000001 -1.2 0  -0.5 -1.2 0  -0.3999999999999999 -1.2 0  -0.3 -1.2 0  -0.2 -1.2 0  -0.1000000000000001 -1.2 0  0 -1.2 0  0.1000000000000001 -1.2 0  0.2000000000000002 -1.2 0  0.2999999999999998 -1.2 0  0.3999999999999999 -1.2 0  0.5 -1.2 0  0.6000000000000001 -1.2 0  0.7000000000000002 -1.2 0  0.7999999999999998 -1.2 0  0.8999999999999999 -1.2 0  1 -1.2 0  1.1 -1.2 0  1.2 -1.2 0  1.3 -1.2 0  1.4 -1.2 0  1.5 -1.2 0  1.6 -1.2 0  1.7 -1.2 0  1.8 -1.2 0  1.9 -1.2 0  2 -1.2 0  -2 -1.1 0  -1.9 -1.1 0  -1.8 -1.1 0  -1.7 -1.1 0  -1.6 -1.1 0  -1.5 -1.1 0  -1.4 -1.1 0  -1.3 -1.1 0  -1.2 -1.1 0  -1.1 -1.1 0  -1 -1.1 0  -0.8999999999999999 -1.1 0  -0.8 -1.1 0  -0.7 -1.1 0  -0.6000000000000001 -1.1 0  -0.5 -1.1 0  -0.3999999999999999 -1.1 0  -0.3 -1.1 0  -0.2 -1.1 0  -0.1000000000000001 -1.1 0  0 -1.1 0  0.1000000000000001 -1.1 0  0.2000000000000002 -1.1 0  0.2999999999999998 -1.1 0  0.3999999999999999 -1.1 0  0.5 -1.1 0  0.6000000000000001 -1.1 0  0.7000000000000002 -1.1 0  0.7999999999999998 -1.1 0  0.8999999999999999 -1.1 0  1 -1.1 0  1.1 -1.1 0  1.2 -1.1 0  1.3 -1.1 0  1.4 -1.1 0  1.5 -1.1 0  1.6 -1.1 0  1.7 -1.1 0  1.8 -1.1 0  1.9 -1.1 0  2 -1.1 0  -2 -1 0  -1.9 -1 0  -1.8 -1 0  -1.7 -1 0  -1.6 -1 0  -1.5 -1 0  -1.4 -1 0  -1.3 -1 0  -1.2 -1 0  -1.1 -1 0  -1 -1 0  -0.8999999999999999 -1 0  -0.8 -1 0  -0.7 -1 0  -0.6000000000000001 -1 0  -0.5 -1 0  -0.3999999999999999 -1 0  -0.3 -1 0  -0.2 -1 0  -0.1000000000000001 -1 0  0 -1 0  0.1000000000000001 -1 0  0.2000000000000002 -1 0  0.2999999999999998 -1 0  0.3999999999999999 -1 0  0.5 -1 0  0.6000000000000001 -1 0  0.7000000000000002 -1 0  0.7999999999999998 -1 0  0.8999999999999999 -1 0  1 -1 0  1.1 -1 0  1.2 -1 0  1.3 -1 0  1.4 -1 0  1.5 -1 0  1.6 -1 0  1.7 -1 0  1.8 -1 0  1.9 -1 0  2 -1 0  -2 -0.8999999999999999 0  -1.9 -0.8999999999999999 0  -1.8 -0.8999999999999999 0  -1.7 -0.8999999999999999 0  -1.6 -0.8999999999999999 0  -1.5 -0.8999999999999999 0  -1.4 -0.8999999999999999 0  -1.3 -0.8999999999999999 0  -1.2 -0.8999999999999999 0  -1.1 -0.8999999999999999 0  -1 -0.8999999999999999 0  -0.8999999999999999 -0.8999999999999999 0  -0.8 -0.8999999999999999 0  -0.7 -0.8999999999999999 0  -0.6000000000000001 -0.8999999999999999 0  -0.5 -0.8999999999999999 0  -0.3999999999999999 -0.8999999999999999 0  -0.3 -0.8999999999999999 0  -0.2 -0.8999999999999999 0  -0.1000000000000001 -0.8999999999999999 0  0 -0.8999999999999999 0  0.1000000000000001 -0.8999999999999999 0  0.2000000000000002 -0.8999999999999999 0  0.2999999999999998 -0.8999999999999999 0  0.3999999999999999 -0.8999999999999999 0  0.5 -0.8999999999999999 0  0.6000000000000001 -0.8999999999999999 0  0.7000000000000002 -0.8999999999999999 0  0.7999999999999998 -0.8999999999999999 0  0.8999999999999999 -0.8999999999999999 0  1 -0.8999999999999999 0  1.1 -0.8999999999999999 0  1.2 -0.8999999999999999 0  1.3 -0.8999999999999999 0  1.4 -0.8999999999999999 0  1.5 -0.8999999999999999 0  1.6 -0.8999999999999999 0  1.7 -0.8999999999999999 0  1.8 -0.8999999999999999 0  1.9 -0.8999999999999999 0  2 -0.8999999999999999 0  -2 -0.8 0  -1.9 -0.8 0  -1.8 -0.8 0  -1.7 -0.8 0  -1.6 -0.8 0  -1.5 -0.8 0  -1.4 -0.8 0  -1.3 -0.8 0  -1.2 -0.8 0  -1.1 -0.8 0  -1 -0.8 0  -0.8999999999999999 -0.8 0  -0.8 -0.8 0  -0.7 -0.8 0  -0.6000000000000001 -0.8 0  -0.5 -0.8 0  -0.3999999999999999 -0.8 0  -0.3 -0.8 0  -0.2 -0.8 0  -0.1000000000000001 -0.8 0  0 -0.8 0  0.1000000000000001 -0.8 0  0.2000000000000002 -0.8 0  0.2999999999999998 -0.8 0  0.3999999999999999 -0.8 0  0.5 -0.8 0  0.6000000000000001 -0.8 0  0.7000000000000002 -0.8 0  0.7999999999999998 -0.8 0  0.8999999999999999 -0.8 0  1 -0.8 0  1.1 -0.8 0  1.2 -0.8 0  1.3 -0.8 0  1.4 -0.8 0  1.5 -0.8 0  1.6 -0.8 0  1.7 -0.8 0  1.8 -0.8 0  1.9 -0.8 0  2 -0.8 0  -2 -0.7 0  -1.9 -0.7 0  -1.8 -0.7 0  -1.7 -0.7 0  -1.6 -0.7 0  -1.5 -0.7 0  -1.4 -0.7 0  -1.3 -0.7 0  -1.2 -0.7 0  -1.1 -0.7 0  -1 -0.7 0  -0.8999999999999999 -0.7 0  -0.8 -0.7 0  -0.7 -0.7 0  -0.6000000000000001 -0.7 0  -0.5 -0.7 0  -0.3999999999999999 -0.7 0  -0.3 -0.7 0  -0.2 -0.7 0  -0.1000000000000001 -0.7 0  0 -0.7 0  0.1000000000000001 -0.7 0  0.2000000000000002 -0.7 0  0.2999999999999998 -0.7 0  0.3999999999999999 -0.7 0  0.5 -0.7 0  0.600000000000000
[...]
<PointData  Scalars="f_1726"> 
<DataArray  type="Float64"  Name="f_1726"  format="ascii">0.0000000000000000e+00  0.0000000000000000e+00  0.0000000000000000e+00  0.0000000000000000e+00  0.0000000000000000e+00  0.0000000000000000e+00  0.0000000000000000e+00  0.0000000000000000e+00  0.0000000000000000e+00  0.0000000000000000e+00  0.0000000000000000e+00  0.0000000000000000e+00  0.0000000000000000e+00  0.0000000000000000e+00  0.0000000000000000e+00  0.0000000000000000e+00  0.0000000000000000e+00  0.0000000000000000e+00  0.0000000000000000e+00  0.0000000000000000e+00  0.0000000000000000e+00  0.0000000000000000e+00  0.0000000000000000e+00  0.0000000000000000e+00  0.0000000000000000e+00  0.0000000000000000e+00  0.0000000000000000e+00  0.0000000000000000e+00  0.0000000000000000e+00  0.0000000000000000e+00  0.0000000000000000e+00  0.0000000000000000e+00  0.0000000000000000e+00  0.0000000000000000e+00  0.0000000000000000e+00  0.0000000000000000e+00  0.0000000000000000e+00  0.0000000000000000e+00  0.0000000000000000e+00  0.0000000000000000e+00  0.0000000000000000e+00  0.0000000000000000e+00  -4.8186214479063838e-11  -5.6154249459766299e-11  3.6900554591408034e-10  -8.8919874070115648e-11  -1.8688842016689390e-09  1.0069002208033155e-09  9.1954440135510348e-09  1.2651334043302897e-09  -3.8168618427271066e-08  -7.6160383076990836e-08  -6.7131861582502831e-08  -2.3138434997219434e-08  6.2620968367850059e-09  6.3441585280701248e-09  -6.0217735852134942e-10  -1.2159800322703414e-09  2.0372338582431681e-10  1.8715598661887211e-10  -7.2777665359089272e-11  -1.3296250892696009e-11  1.5845150531286431e-11  -3.1083355599036007e-12  -1.3551401141259569e-12  1.0122703137109410e-12  -2.2223002348590705e-13  -5.0488774961482087e-14  5.5768439553855047e-14  -2.0004902196041020e-14  2.3479685817869688e-15  1.5031232688927091e-15  -1.1203094697030027e-15  4.1983998216195712e-16  -9.2845961344523577e-17  7.6871657687518723e-19  1.0886105059328706e-17  -6.5484078831173683e-18  2.6643461150463166e-18  -8.8320500556376192e-19  2.7997021418197671e-19  0.0000000000000000e+00  0.0000000000000000e+00  -5.6154249459766254e-11  4.0383887656381801e-10  -3.5925445506509944e-10  -1.7691152197570444e-09  3.7151136885556534e-09  6.9434700999837333e-09  -2.0004158365826160e-08  -3.9075956364460567e-08  5.8265040420333806e-08  2.4972324774965610e-07  3.2601145972349890e-07  1.9093573048510833e-07  1.5443235415774311e-08  -3.7013522819350530e-08  -8.4132549509349407e-09  6.8718495956317563e-09  1.1626040432478235e-09  -1.3765537189132824e-09  6.2845120387113646e-11  2.1579560156773558e-10  -7.2724138674434946e-11  -1.0517457878249577e-11  1.5169637663866472e-11  -4.3879077466927263e-12  -4.0877477213551566e-13  8.2363118011822666e-13  -3.2846320553631790e-13  4.5685326143432609e-14  2.1742319189068801e-14  -1.7512891774599133e-14  6.5975612770163115e-15  -1.4086148376464630e-15  -2.6303530198008342e-17  1.8574126994388564e-16  -1.0537251669940605e-16  4.1194678802386964e-17  -1.3026519832780774e-17  3.5385905157345909e-18  -8.8320500556376308e-19  0.0000000000000000e+00  0.0000000000000000e+00  3.6900554591408029e-10  -3.5925445506509955e-10  -1.6174148233132590e-09  4.7900665664328055e-09  2.6426838509213739e-09  -2.8417285793485192e-08  1.7632945322223085e-09  1.4195708426519492e-07  5.3910802204635684e-08  -5.7744497168445550e-07  -1.2288886688215368e-06  -1.0893290448266239e-06  -3.5351240784232502e-07  1.1615409449226950e-07  9.4618276337016373e-08  -1.6813231210481305e-08  -1.6932075880819361e-08  4.9969082073219510e-09  2.0035574170764775e-09  -1.3186891087286946e-09  5.3717030335999086e-11  1.9177286476016942e-10  -7.8655035660405530e-11  2.3382282145304194e-12  1.0641114946512282e-11  -5.1595388139999068e-12  9.5045480079659048e-13  2.4141003863000389e-13  -2.5260635813577509e-13  1.0236528528854002e-13  -2.3411111274052655e-14  2.6914125108869120e-16  2.6986004654324654e-15  -1.6002568856439490e-15  6.3533867877349753e-16  -2.0285482497823627e-16  5.4970661981797395e-17  -1.3026519832780718e-17  2.6643461150463093e-18  0.0000000000000000e+00  0.0000000000000000e+00  -8.8919874070115389e-11  -1.7691152197570444e-09  4.7900665664328064e-09  8.9896434605999420e-10  -2.9106417540797400e-08  3.3143857439033528e-08  1.2704016862307792e-07  -2.3169336710427684e-07  -6.4013082740724554e-07  6.9597491104607682e-07  3.6980995028750713e-06  4.9844585677332998e-06  2.8554788697075359e-06  1.3174546536463986e-07  -5.6706897041724539e-07  -8.0193207139390248e-08  1.0707633233401509e-07  3.2225198221023885e-09  -1.9053606482321015e-08  3.9679483218456468e-09  1.9537444053314236e-09  -1.2760247292318587e-09  1.7120999300367580e-10  1.2281027418695719e-10  -7.8375786691372641e-11  1.8421980175125767e-11  2.0730866443387081e-12  -3.5621143845228721e-12  1.5850569663677548e-12  -3.9179178554359341e-13  1.6544617171245424e-14  3.8785585933547787e-14  -2.4409232212341801e-14  9.8868318249819503e-15  -3.1844412016188537e-15  8.6612368203453518e-16  -2.0285482497823723e-16  4.1194678802387032e-17  -6.5484078831173983e-18  0.0000000000000000e+00  0.0000000000000000e+00  -1.8688842016689402e-09  3.7151136885556530e-09  2.6426838509213706e-09  -2.9106417540797400e-08  4.3289473915693352e-08  9.5765478618090157e-08  -3.6580657696748536e-07  -2.0335353784225925e-07  1.9734526111363456e-06  1.3587479709028448e-06  -8.0373707822522468e-06  -1.8576672792785388e-05  -1.6556947004627686e-05  -4.9457739197925663e-06  2.0122037880404367e-06  1.2606849115366475e-06  -3.6419851961959679e-07  -1.9413567834051784e-07  9.5292817522609524e-08  1.0258925673357572e-08  -1.8372564399781934e-08  4.5198894116275716e-09  1.1240361380818134e-09  -1.1349796698978770e-09  3.3566917594614018e-10  4.4053174395765935e-12  -4.8638419839468392e-11  2.4315504821273870e-11  -6.5189214840086357e-12  4.6171231904388952e-13  5.4966327342727921e-13  -3.7166692604344741e-13  1.5392785319919211e-13  -5.0024545392016406e-14  1.3635910186550403e-14  -3.1844412016188482e-15  6.3533867877349901e-16  -1.0537251669940590e-16  1.0886105059328711e-17  0.0000000000000000e+00  0.0000000000000000e+00  1.0069002208033209e-09  6.9434700999837308e-09  -2.8417285793485192e-08  3.3143857439033548e-08  9.5765478618090117e-08  -3.9514912320005111e-07  1.0700838614651053e-07  2.0829257129229179e-06  -2.2376285456163262e-06  -1.0175142621286050e-05  7.4013865503970328e-06  5.4427619881889809e-05  7.6217910146110502e-05  4.2459643066445303e-05  2.0741156365694209e-07  -8.5230286256063794e-06  -4.0176262079185991e-07  1.5603810908151874e-06  -1.7482295217413842e-07  -2.1999385107656142e-07  9.1201461504304149e-08  3.7761454400376958e-09  -1.5309512280124720e-08  5.7977143332007608e-09  -3.8395743700186878e-10  -6.3198528211034006e-10  3.6815181341484984e-10  -1.0773220140801707e-10  1.0574131252001556e-11  7.6296006687292731e-12  -5.6412305113425555e-12  2.3964538383043840e-12  -7.8660866412382002e-13  2.1490403922587217e-13  -5.0024545392016406e-14  9.8868318249819377e-15  -1.6002568856439541e-15  1.8574126994388589e-16  7.6871657687505435e-19  0.0000000000000000e+00  0.0000000000000000e+00  9.1954440135510364e-09  -2.0004158365826190e-08  1.7632945322223654e-09  1.2704016862307781e-07  -3.6580657696748525e-07  1.0700838614651037e-07  1.9816418624252989e-06  -3.9551603207599926e-06  -6.2812387885908874e-06  2.5925643230257313e-05  2.8823715501371711e-05  -1.0974289097966432e-04  -2.8170040383124960e-04  -2.5254795205049583e-04  -6.7659716429312424e-05  3.4435986404632113e-05  1.5711480749407866e-05  -6.9349933264376173e-06  -1.7107906157575521e-06  1.5309093873876714e-06  -1.6275086665351037e-07  -1.8299096749057796e-07  9.4764309295878942e-08  -1.3124013308247422e-08  -7.5521590428567733e-09  5.4740371756949175e-09  -1.7666770128919039e-09  2.2088751322377899e-10  1.0274839862598689e-10  -8.5272258194133103e-11  3.7307081171782717e-11  -1.2383696573303760e-11  3.3917458307190649e-12  -7.8660866412382123e-13  1.5392785319919241e-13  -2.4409232212341855e-14  2.6986004654324824e-15  -2.6303530198010407e-17  -9.2845961344523232e-17  0.0000000000000000e+00  0.0000000000000000e+00  1.2651334043302822e-09  -3.9075956364460540e-08  1.4195708426519497e-07  -2.3169336710427710e-07  -2.0335353784225896e-07  2.0829257129229170e-06  -3.9551603207599917e-06  -4.2670843216926091e-06  3.0387815645791849e-05  -1.2258794236129359e-05  -1.5653259168326271e-04  5.9734003048695601e-05  7.9877871968246075e-04  1.1722542383708979e-03  6.2998240806144397e-04  -2.8097696878914098e-05  -1.2504375601111304e-04  7.3749562263294288e-06  2.0595975151318966e-05  -5.6568987346710185e-06  -1.6764214525245220e-06  1.4462116789854754e-06  -3.1183796951781317e-07  -7.6169129611956492e-08  7.9292960801560507e-08  -2.8699757405963278e-08  4.3739113032566314e-09  1.3201704295863092e-09  -1.2820377198393822e-09  5.8068488536798014e-10  -1.9522677796335194e-10  5.3619306904828010e-11  -1.2383696573303710e-11  2.3964538383043767e-12  -3.7166692604344615e-13  3.8785585933547567e-14  2.6914125108871595e-16  -1.4086148376464606e-15  4.1983998216195623e-16  0.0000000000000000e+00  0.0000000000000000e+00  -3.8168618427271060e-08  5.8265040420333812e-08  5.3910802204635638e-08  -6.4013082740724533e-07  1.9734526111363469e-06  -2.2376285456163284e-06  -6.2812387885908866e-06  3.0387815645791853e-05  -2.7146437144228263e-05  -1.3356332357556414e-04  3.0807404220499696e-04  5.5921204034794516e-04  -1.4533596332058434e-03  -4.2908032317280293e-03  -3.8713431806450659e-03  -8.9194342037062630e-04  5.8160933978645946e-04  1.7153166289659606e-04  -1.1919063490359734e-04  -3.5045076127689862e-06  1.9893434062733481e-05  -6.3256063541201694e-06  -4.4611356739411563e-07  1.1033068484025723e-06  -4.6051792765743399e-07  8.3601897709360692e-08  1.5634151587175698e-08  -1.9135625321595106e-08  9.0354122820291226e-09  -3.0826621835478636e-09  8.4930307428035876e-10  -1.9522677796335287e-10  3.7307081171782782e-11  -5.6412305113425821e-12  5.4966327342728517e-13  1.6544617171244212e-14  -2.3411111274052535e-14  6.5975612770162768e-15  -1.1203094697029993e-15  0.0000000000000000e+00  0.0000000000000000e+00  -7.6160383076990717e-08  2.4972324774965562e-07  -5.7744497168445497e-07  6.9597491104607682e-07  1.3587479709028433e-06  -1.0175142621286056e-05  2.5925643230257334e-05  -1.2258794236129389e-05  -1.3356332357556422e-04  3.7056376502812730e-04  1.6696412605947668e-04  -2.2961521876725881e-03  1.4407567109836919e-05  1.1665679709621207e-02  1.8173102858376058e-02  9.3086375712681906e-03  -9.8237052791796281e-04  -1.7583602024532031e-03  3.2517952418763729e-04  2.2368315439958596e-04  -1.1431557174050243e-04  5.9565262158608239e-06  1.4344575701259842e-05  -7.2621217257771818e-06  1.5571747372215417e-06  1.5586369606446819e-07  -2.8274833249344698e-07  1.4050965403080023e-07  -4.8768291014798090e-08  1.3483664156982499e-08  -3.0826621835478603e-09  5.8068488536798169e-10  -8.5272258194133052e-11  7.6296006687292780e-12  4.6171231904389043e-13  -3.9179178554359326e-13  1.0236528528854036e-13  -1.7512891774599129e-14  1.5031232688927117e-15  0.0000000000000000e+00  0.0000000000000000e+00  -6.7131861582502699e-08  3.2601145972349842e-07  -1.2288886688215351e-06  3.6980995028750662e-06  -8.0373707822522401e-06  7.4013865503970354e-06  2.8823715501371718e-05  -1.5653259168326279e-04  3.0807404220499718e-04  1.6696412605947660e-04  -2.3055013616467010e-03  2.9170681419151447e-03  1.0196455027181800e-02  -1.8216630579506985e-02  -6.5750274505499251e-02  -5.9740704868436176e-02  -1.0958860275918032e-02  9.6462154115256465e-03  1.2938157106559879e-03  -1.8123799377927465e-03  3.0711960814775997e-04  1.6316266552348185e-04  -1.1150745574001726e-04  2.8398192935217724e-05  8.4914581371185031e-07  -4.1171150008498588e-06  2.1829462052029191e-06  -7.7328719852826852e-07  2.1466802968169084e-07  -4.8768291014798103e-08  9.0354122820291209e-09  -1.2820377198393874e-09  1.0274839862598740e-10  1.0574131252001434e-11  -6.5189214840086139e-12  1.5850569663677485e-12  -2.5260635813577473e-13  2.1742319189068618e-14  2.3479685817869948e-15  0.0000000000000000e+00  0.0000000000000000e+00  -2.3138434997219371e-08  1.9093573048510788e-07  -1.0893290448266218e-06  4.9844585677332913e-06  -1.8576672792785360e-05  5.4427619881889741e-05  -1.0974289097966423e-04  5.9734003048695737e-05  5.5921204034794548e-04  -2.2961521876725894e-03  2.9170681419151468e-03  7.7560819683789393e-03  -3.0969778097434363e-02  -1.5238867599801264e-02  1.6882456872691545e-01  2.8495687421080690e-01  1.3641032524581592e-01  -2.5013873985807570e-02  -2.2708307399701918e-02  7.9530216829664813e-03  1.2822747436192644e-03  -1.6364347988850896e-03  5.0758019539043364e-04  -1.5611957750835498e-05  -5.8615098743961887e-05  3.3858890036061934e-05  -1.2295871310530303e-05  3.4294567152234851e-06  -7.7328719852826968e-07  1.4050965403080057e-07  -1.9135625321595166e-08  1.3201704295863227e-09  2.2088751322377723e-10  -1.0773220140801694e-10  2.4315504821273847e-11  -3.5621143845228665e-12  2.4141003863000414e-13  4.5685326143432578e-14  -2.0004902196041014e-14  0.0000000000000000e+00  0.0000000000000000e+00  6.2620968367850109e-09  1.5443235415774206e-08  -3.5351240784232402e-07  2.8554788697075287e-06  -1.6556947004627659e-05  7.6217910146110393e-05  -2.8170040383124916e-04  7.9877871968245988e-04  -1.4533596332058434e-03  1.4407567109834275e-05  1.0196455027181807e-02  -3.0969778097434380e-02  9.2605370288749208e-03  1.7500299358248766e-01  -2.0273650433988577e-01  -1.0161840209618656e+00  -9.3061665876279442e-01  -1.1390694238665443e-01  1.5488571692420461e-01  -5.6164940474089479e-03  -2.1977048968365012e-02  8.8576007086946362e-03  -7.7843840280200497e-04  -8.0382062459032652e-04  5.2371625213350865e-04  -1.9620174894764467e-04  5.5027386148486369e-05  -1.2295871310530257e-05  2.1829462052029132e-06  -2.8274833249344603e-07  1.5634151587175565e-08  4.3739113032566521e-09  -1.7666770128918998e-09  3.6815181341484881e-10  -4.8638419839468114e-11  2.0730866443386669e-12  9.5045480079659856e-13  -3.2846320553631805e-13  5.5768439553855059e-14  0.0000000000000000e+00  0.0000000000000000e+00  6.3441585280701198e-09  -3.7013522819350504e-08  1.1615409449226951e-07  1.3174546536463904e-07  -4.9457739197925570e-06  4.2459643066445235e-05  -2.5254795205049551e-04  1.1722542383708961e-03  -4.2908032317280241e-03  1.1665679709621207e-02  -1.8216630579506978e-02  -1.5238867599801290e-02  1.7500299358248783e-01  -3.4385500662609714e-01  -5.0405579633658848e-01  2.3971061614992828e+00  4.5479730631305255e+00  1.9627534251405079e+00  -5.6644818887611570e-01  -2.3546717886174079e-01  1.4884857551609121e-01  -2.2224280209938621e-02  -1.0273074772239448e-02  8.0608408819957244e-03  -3.1449895432667276e-03  8.8798669977595800e-04  -1.9620174894764570e-04  3.3858890036062009e-05  -4.1171150008498833e-06  1.5586369606447301e-07  8.3601897709359686e-08  -2.8699757405963216e-08  5.4740371756948886e-09  -6.3198528211033696e-10  4.4053174395762502e-12  1.8421980175125763e-11  -5.1595388139999189e-12  8.2363118011822484e-13  -5.0488774961481930e-14  0.0000000000000000e+00  0.0000000000000000e+00  -6.0217735852135221e-10  -8.4132549509349259e-09  9.4618276337016294e-08  -5.6706897041724528e-07  2.0122037880404392e-06  2.0741156365692012e-07  -6.7659716429312262e-05  6.2998240806144321e-04  -3.8713431806450594e-03  1.8173102858376040e-02  -6.5750274505499237e-02  1.6882456872691540e-01  -2.0273650433988574e-01  -5.0405579633658926e-01  2.7334945408657911e+00  -1.5366704356596834e+00  -1.5913884129902931e+01  -1.4707309159431754e+01  -5.6693381236002516e-01  2.3047888519908213e+00  -5.3895214453623863e-01  -1.1127475511207421e-01  1.2291604790293130e-01  -5.0721328169609989e-02  1.4441008921403488e-02  -3.1449895432667232e-03  5.2371625213350984e-04  -5.8615098743961758e-05  8.4914581371184025e-07  1.5571747372215428e-06  -4.6051792765743378e-07  7.9292960801560732e-08  -7.5521590428567716e-09  -3.8395743700186785e-10  3.3566917594614018e-10  -7.8375786691372577e-11  1.0641114946512307e-11  -4.0877477213551510e-13  -2.2223002348590695e-13  0.0000000000000000e+00  0.0000000000000000e+00  -1.2159800322703416e-09  6.8718495956317620e-09  -1.6813231210481365e-08  -8.0193207139389746e-08  1.2606849115366452e-06  -8.5230286256063743e-06  3.4435986404632113e-05  -2.8097696878914342e-05  -8.9194342037062424e-04  9.3086375712681697e-03  -5.9740704868436099e-02  2.8495687421080673e-01  -1.0161840209618656e+00  2.3971061614992828e+00  -1.5366704356596810e+00  -1.2426122693399780e+01  3.2421602799883360e+01  7.4892036333621803e+01  2.6898006330587471e+01  -1.2004285192739463e+01  -5.9359040666516971e-01  1.8375452056657426e+00  -8.2515335818801894e-01  2.3747790779868250e-01  -5.0721328169609982e-02  8.0608408819957175e-03  -8.0382062459032956e-04  -1.5611957750835058e-05  2.8398192935217595e-05  -7.2621217257771521e-06  1.1033068484025657e-06  -7.6169129611955764e-08  -1.3124013308247561e-08  5.7977143332007856e-09  -1.1349796698978803e-09  1.2281027418695745e-10  2.3382282145303948e-12  -4.3879077466927206e-12  1.0122703137109414e-12  0.0000000000000000e+00  0.0000000000000000e+00  2.0372338582431715e-10  1.1626040432478201e-09  -1.6932075880819358e-08  1.0707633233401512e-07  -3.6419851961959726e-07  -4.0176262079185706e-07  1.5711480749407845e-05  -1.2504375601111298e-04  5.8160933978645946e-04  -9.8237052791796584e-04  -1.0958860275917998e-02  1.3641032524581576e-01  -9.3061665876279354e-01  4.5479730631305246e+00  -1.5913884129902931e+01  3.2421602799883352e+01  1.3397607556147022e+01  -2.5503468665409864e+02  -2.3831566314929586e+02  2.0806510862386510e+01  2.6099915022774979e+01  -1.3604411767630033e+01  3.9735728648293258e+00  -8.2515335818802049e-01  1.2291604790293162e-01  -1.0273074772239510e-02  -7.7843840280199727e-04  5.0758019539043147e-04  -1.1150745574001700e-04  1.4344575701259822e-05  -4.4611356739411526e-07  -3.1183796951781370e-07  9.4764309295878822e-08  -1.5309512280124711e-08  1.1240361380818107e-09  1.7120999300367642e-10  -7.8655035660405892e-11  1.5169637663866484e-11  -1.3551401141259611e-12  0.0000000000000000e+00  0.0000000000000000e+00  1.8715598661887190e-10  -1.3765537189132820e-09  4.9969082073219502e-09  3.2225198221023798e-09  -1.9413567834051779e-07  1.5603810908151880e-06  -6.9349933264376257e-06  7.3749562263294814e-06  1.7153166289659574e-04  -1.7583602024532016e-03  9.6462154115256448e-03  -2.5013873985807622e-02  -1.1390694238665401e-01  1.9627534251405050e+00  -1.4707309159431745e+01  7.4892036333621803e+01  -2.5503468665409869e+02  3.6230214712695727e+02  1.3224828354917922e+03  3.0190173609031984e+02  -2.2958510449632064e+02  6.8560103187339081e+01  -1.3604411767629985e+01  1.8375452056657366e+00  -1.1127475511207342e-01  -2.2224280209938649e-02  8.8576007086946518e-03  -1.6364347988850846e-03  1.6316266552348117e-04  5.9565262158609450e-06  -6.3256063541201847e-06  1.4462116789854818e-06  -1.8299096749057831e-07  3.7761454400377744e-09  4.5198894116275583e-09  -1.2760247292318547e-09  1.9177286476016942e-10  -1.0517457878249503e-11  -3.1083355599036056e-12  0.0000000000000000e+00  0.0000000000000000e+00  -7.2777665359089272e-11  6.2845120387113788e-11  2.0035574170764771e-09  -1.9053606482321011e-08  9.5292817522609498e-08  -1.7482295217413842e-07  -1.7107906157575517e-06  2.0595975151318969e-05  -1.1919063490359738e-04  3.2517952418763772e-04  1.2938157106559857e-03  -2.2708307399701918e-02  1.5488571692420464e-01  -5.6644818887611592e-01  -5.6693381236001972e-01  2.6898006330587435e+01  -2.3831566314929574e+02  1.3224828354917920e+03  -4.3015361567182554e+03  -4.0791817680049085e+03  1.2671902386391735e+03  -2.2958510449632155e+02  2.6099915022775061e+01  -5.9359040666519070e-01  -5.3895214453623463e-01  1.4884857551609038e-01  -2.1977048968364953e-02  1.2822747436192464e-03  3.0711960814776230e-04  -1.1431557174050271e-04  1.9893434062733504e-05  -1.6764214525245288e-06  -1.6275086665350997e-07  9.1201461504304228e-08  -1.837256439978195