<?xml version="1.0"?>
<VTKFile type="UnstructuredGrid"  version="0.1"  >
<UnstructuredGrid>
<Piece  NumberOfPoints="1681" NumberOfCells="3200">
<Points>
<DataArray  type="Float64"  NumberOfComponents="3"  format="ascii">-2 -2 0  -1.9 -2 0  -1.8 -2 0  -1.7 -2 0  -1.6 -2 0  -1.5 -2 0  -1.4 -2 0  -1.3 -2 0  -1.2 -2 0  -1.1 -2 0  -1 -2 0  -0.8999999999999999 -2 0  -0.8 -2 0  -0.7 -2 0  -0.6000000000000001 -2 0  -0.5 -2 0  -0.3999999999999999 -2 0  -0.3 -2 0  -0.2 -2 0  -0.1000000000000001 -2 0  0 -2 0  0.1000000000000001 -2 0  0.2000000000000002 -2 0  0.2999999999999998 -2 0  0.3999999999999999 -2 0  0.5 -2 0  0.6000000000000001 -2 0  0.7000000000000002 -2 0  0.7999999999999998 -2 0  0.8999999999999999 -2 0  1 -2 0  1.1 -2 0  1.2 -2 0  1.3 -2 0  1.4 -2 0  1.5 -2 0  1.6 -2 0  1.7 -2 0  1.8 -2 0  1.9 -2 0  2 -2 0  -2 -1.9 0  -1.9 -1.9 0  -1.8 -1.9 0  -1.7 -1.9 0  -1.6 -1.9 0  -1.5 -1.9 0  -1.4 -1.9 0  -1.3 -1.9 0  -1.2 -1.9 0  -1.1 -1.9 0  -1 -1.9 0  -0.8999999999999999 -1.9 0  -0.8 -1.9 0  -0.7 -1.9 0  -0.6000000000000001 -1.9 0  -0.5 -1.9 0  -0.3999999999999999 -1.9 0  -0.3 -1.9 0  -0.2 -1.9 0  -0.1000000000000001 -1.9 0  0 -1.9 0  0.1000000000000001 -1.9 0  0.2000000000000002 -1.9 0  0.2999999999999998 -1.9 0  0.3999999999999999 -1.9 0  0.5 -1.9 0  0.6000000000000001 -1.9 0  0.7000000000000002 -1.9 0  0.7999999999999998 -1.9 0  0.8999999999999999 -1.9 0  1 -1.9 0  1.1 -1.9 0  1.2 -1.9 0  1.3 -1.9 0  1.4 -1.9 0  1.5 -1.9 0  1.6 -1.9 0  1.7 -1.9 0  1.8 -1.9 0  1.9 -1.9 0  2 -1.9 0  -2 -1.8 0  -1.9 -1.8 0  -1.8 -1.8 0  -1.7 -1.8 0  -1.6 -1.8 0  -1.5 -1.8 0  -1.4 -1.8 0  -1.3 -1.8 0  -1.2 -1.8 0  -1.1 -1.8 0  -1 -1.8 0  -0.8999999999999999 -1.8 0  -0.8 -1.8 0  -0.7 -1.8 0  -0.6000000000000001 -1.8 0  -0.5 -1.8 0  -0.3999999999999999 -1.8 0  -0.3 -1.8 0  -0.2 -1.8 0  -0.1000000000000001 -1.8 0  0 -1.8 0  0.1000000000000001 -1.8 0  0.2000000000000002 -1.8 0  0.2999999999999998 -1.8 0  0.3999999999999999 -1.8 0  0.5 -1.8 0  0.6000000000000001 -1.8 0  0.7000000000000002 -1.8 0  0.7999999999999998 -1.8 0  0.8999999999999999 -1.8 0  1 -1.8 0  1.1 -1.8 0  1.2 -1.8 0  1.3 -1.8 0  1.4 -1.8 0  1.5 -1.8 0  1.6 -1.8 0  1.7 -1.8 0  1.8 -1.8 0  1.9 -1.8 0  2 -1.8 0  -2 -1.7 0  -1.9 -1.7 0  -1.8 -1.7 0  -1.7 -1.7 0  -1.6 -1.7 0  -1.5 -1.7 0  -1.4 -1.7 0  -1.3 -1.7 0  -1.2 -1.7 0  -1.1 -1.7 0  -1 -1.7 0  -0.8999999999999999 -1.7 0  -0.8 -1.7 0  -0.7 -1.7 0  -0.6000000000000001 -1.7 0  -0.5 -1.7 0  -0.3999999999999999 -1.7 0  -0.3 -1.7 0  -0.2 -1.7 0  -0.1000000000000001 -1.7 0  0 -1.7 0  0.1000000000000001 -1.7 0  0.2000000000000002 -1.7 0  0.2999999999999998 -1.7 0  0.3999999999999999 -1.7 0  0.5 -1.7 0  0.6000000000000001 -1.7 0  0.7000000000000002 -1.7 0  0.7999999999999998 -1.7 0  0.8999999999999999 -1.7 0  1 -1.7 0  1.1 -1.7 0  1.2 -1.7 0  1.3 -1.7 0  1.4 -1.7 0  1.5 -1.7 0  1.6 -1.7 0  1.7 -1.7 0  1.8 -1.7 0  1.9 -1.7 0  2 -1.7 0  -2 -1.6 0  -1.9 -1.6 0  -1.8 -1.6 0  -1.7 -1.6 0  -1.6 -1.6 0  -1.5 -1.6 0  -1.4 -1.6 0  -1.3 -1.6 0  -1.2 -1.6 0  -1.1 -1.6 0  -1 -1.6 0  -0.8999999999999999 -1.6 0  -0.8 -1.6 0  -0.7 -1.6 0  -0.6000000000000001 -1.6 0  -0.5 -1.6 0  -0.3999999999999999 -1.6 0  -0.3 -1.6 0  -0.2 -1.6 0  -0.1000000000000001 -1.6 0  0 -1.6 0  0.1000000000000001 -1.6 0  0.2000000000000002 -1.6 0  0.2999999999999998 -1.6 0  0.3999999999999999 -1.6 0  0.5 -1.6 0  0.6000000000000001 -1.6 0  0.7000000000000002 -1.6 0  0.7999999999999998 -1.6 0  0.8999999999999999 -1.6 0  1 -1.6 0  1.1 -1.6 0  1.2 -1.6 0  1.3 -1.6 0  1.4 -1.6 0  1.5 -1.6 0  1.6 -1.6 0  1.7 -1.6 0  1.8 -1.6 0  1.9 -1.6 0  2 -1.6 0  -2 -1.5 0  -1.9 -1.5 0  -1.8 -1.5 0  -1.7 -1.5 0  -1.6 -1.5 0  -1.5 -1.5 0  -1.4 -1.5 0  -1.3 -1.5 0  -1.2 -1.5 0  -1.1 -1.5 0  -1 -1.5 0  -0.8999999999999999 -1.5 0  -0.8 -1.5 0  -0.7 -1.5 0  -0.6000000000000001 -1.5 0  -0.5 -1.5 0  -0.3999999999999999 -1.5 0  -0.3 -1.5 0  -0.2 -1.5 0  -0.1000000000000001 -1.5 0  0 -1.5 0  0.1000000000000001 -1.5 0  0.2000000000000002 -1.5 0  0.2999999999999998 -1.5 0  0.3999999999999999 -1.5 0  0.5 -1.5 0  0.6000000000000001 -1.5 0  0.7000000000000002 -1.5 0  0.7999999999999998 -1.5 0  0.8999999999999999 -1.5 0  1 -1.5 0  1.1 -1.5 0  1.2 -1.5 0  1.3 -1.5 0  1.4 -1.5 0  1.5 -1.5 0  1.6 -1.5 0  1.7 -1.5 0  1.8 -1.5 0  1.9 -1.5 0  2 -1.5 0  -2 -1.4 0  -1.9 -1.4 0  -1.8 -1.4 0  -1.7 -1.4 0  -1.6 -1.4 0  -1.5 -1.4 0  -1.4 -1.4 0  -1.3 -1.4 0  -1.2 -1.4 0  -1.1 -1.4 0  -1 -1.4 0  -0.8999999999999999 -1.4 0  -0.8 -1.4 0  -0.7 -1.4 0  -0.6000000000000001 -1.4 0  -0.5 -1.4 0  -0.3999999999999999 -1.4 0  -0.3 -1.4 0  -0.2 -1.4 0  -0.1000000000000001 -1.4 0  0 -1.4 0  0.1000000000000001 -1.4 0  0.2000000000000002 -1.4 0  0.2999999999999998 -1.4 0  0.3999999999999999 -1.4 0  0.5 -1.4 0  0.6000000000000001 -1.4 0  0.7000000000000002 -1.4 0  0.7999999999999998 -1.4 0  0.8999999999999999 -1.4 0  1 -1.4 0  1.1 -1.4 0  1.2 -1.4 0  1.3 -1.4 0  1.4 -1.4 0  1.5 -1.4 0  1.6 -1.4 0  1.7 -1.4 0  1.8 -1.4 0  1.9 -1.4 0  2 -1.4 0  -2 -1.3 0  -1.9 -1.3 0  -1.8 -1.3 0  -1.7 -1.3 0  -1.6 -1.3 0  -1.5 -1.3 0  -1.4 -1.3 0  -1.3 -1.3 0  -1.2 -1.3 0  -1.1 -1.3 0  -1 -1.3 0  -0.8999999999999999 -1.3 0  -0.8 -1.3 0  -0.7 -1.3 0  -0.6000000000000001 -1.3 0  -0.5 -1.3 0  -0.3999999999999999 -1.3 0  -0.3 -1.3 0  -0.2 -1.3 0  -0.1000000000000001 -1.3 0  0 -1.3 0  0.1000000000000001 -1.3 0  0.2000000000000002 -1.3 0  0.2999999999999998 -1.3 0  0.3999999999999999 -1.3 0  0.5 -1.3 0  0.6000000000000001 -1.3 0  0.7000000000000002 -1.3 0  0.7999999999999998 -1.3 0  0.8999999999999999 -1.3 0  1 -1.3 0  1.1 -1.3 0  1.2 -1.3 0  1.3 -1.3 0  1.4 -1.3 0  1.5 -1.3 0  1.6 -1.3 0  1.7 -1.3 0  1.8 -1.3 0  1.9 -1.3 0  2 -1.3 0  -2 -1.2 0  -1.9 -1.2 0  -1.8 -1.2 0  -1.7 -1.2 0  -1.6 -1.2 0  -1.5 -1.2 0  -1.4 -1.2 0  -1.3 -1.2 0  -1.2 -1.2 0  -1.1 -1.2 0  -1 -1.2 0  -0.8999999999999999 -1.2 0  -0.8 -1.2 0  -0.7 -1.2 0  -0.6000000000000001 -1.2 0  -0.5 -1.2 0  -0.3999999999999999 -1.2 0  -0.3 -1.2 0  -0.2 -1.2 0  -0.1000000000000001 -1.2 0  0 -1.2 0  0.1000000000000001 -1.2 0  0.2000000000000002 -1.2 0  0.2999999999999998 -1.2 0  0.3999999999999999 -1.2 0  0.5 -1.2 0  0.6000000000000001 -1.2 0  0.7000000000000002 -1.2 0  0.7999999999999998 -1.2 0  0.8999999999999999 -1.2 0  1 -1.2 0  1.1 -1.2 0  1.2 -1.2 0  1.3 -1.2 0  1.4 -1.2 0  1.5 -1.2 0  1.6 -1.2 0  1.7 -1.2 0  1.8 -1.2 0  1.9 -1.2 0  2 -1.2 0  -2 -1.1 0  -1.9 -1.1 0  -1.8 -1.1 0  -1.7 -1.1 0  -1.6 -1.1 0  -1.5 -1.1 0  -1.4 -1.1 0  -1.3 -1.1 0  -1.2 -1.1 0  -1.1 -1.1 0  -1 -1.1 0  -0.8999999999999999 -1.1 0  -0.8 -1.1 0  -0.7 -1.1 0  -0.6000000000000001 -1.1 0  -0.5 -1.1 0  -0.3999999999999999 -1.1 0  -0.3 -1.1 0  -0.2 -1.1 0  -0.1000000000000001 -1.1 0  0 -1.1 0  0.1000000000000001 -1.1 0  0.2000000000000002 -1.1 0  0.2999999999999998 -1.1 0  0.3999999999999999 -1.1 0  0.5 -1.1 0  0.6000000000000001 -1.1 0  0.7000000000000002 -1.1 0  0.7999999999999998 -1.1 0  0.8999999999999999 -1.1 0  1 -1.1 0  1.1 -1.1 0  1.2 -1.1 0  1.3 -1.1 0  1.4 -1.1 0  1.5 -1.1 0  1.6 -1.1 0  1.7 -1.1 0  1.8 -1.1 0  1.9 -1.1 0  2 -1.1 0  -2 -1 0  -1.9 -1 0  -1.8 -1 0  -1.7 -1 0  -1.6 -1 0  -1.5 -1 0  -1.4 -1 0  -1.3 -1 0  -1.2 -1 0  -1.1 -1 0  -1 -1 0  -0.8999999999999999 -1 0  -0.8 -1 0  -0.7 -1 0  -0.6000000000000001 -1 0  -0.5 -1 0  -0.3999999999999999 -1 0  -0.3 -1 0  -0.2 -1 0  -0.1000000000000001 -1 0  0 -1 0  0.1000000000000001 -1 0  0.2000000000000002 -1 0  0.2999999999999998 -1 0  0.3999999999999999 -1 0  0.5 -1 0  0.6000000000000001 -1 0  0.7000000000000002 -1 0  0.7999999999999998 -1 0  0.8999999999999999 -1 0  1 -1 0  1.1 -1 0  1.2 -1 0  1.3 -1 0  1.4 -1 0  1.5 -1 0  1.6 -1 0  1.7 -1 0  1.8 -1 0  1.9 -1 0  2 -1 0  -2 -0.8999999999999999 0  -1.9 -0.8999999999999999 0  -1.8 -0.8999999999999999 0  -1.7 -0.8999999999999999 0  -1.6 -0.8999999999999999 0  -1.5 -0.8999999999999999 0  -1.4 -0.8999999999999999 0  -1.3 -0.8999999999999999 0  -1.2 -0.8999999999999999 0  -1.1 -0.8999999999999999 0  -1 -0.8999999999999999 0  -0.8999999999999999 -0.8999999999999999 0  -0.8 -0.8999999999999999 0  -0.7 -0.8999999999999999 0  -0.6000000000000001 -0.8999999999999999 0  -0.5 -0.8999999999999999 0  -0.3999999999999999 -0.8999999999999999 0  -0.3 -0.8999999999999999 0  -0.2 -0.8999999999999999 0  -0.1000000000000001 -0.8999999999999999 0  0 -0.8999999999999999 0  0.1000000000000001 -0.8999999999999999 0  0.2000000000000002 -0.8999999999999999 0  0.2999999999999998 -0.8999999999999999 0  0.3999999999999999 -0.8999999999999999 0  0.5 -0.8999999999999999 0  0.6000000000000001 -0.8999999999999999 0  0.7000000000000002 -0.8999999999999999 0  0.7999999999999998 -0.8999999999999999 0  0.8999999999999999 -0.8999999999999999 0  1 -0.8999999999999999 0  1.1 -0.8999999999999999 0  1.2 -0.8999999999999999 0  1.3 -0.8999999999999999 0  1.4 -0.8999999999999999 0  1.5 -0.8999999999999999 0  1.6 -0.8999999999999999 0  1.7 -0.8999999999999999 0  1.8 -0.8999999999999999 0  1.9 -0.8999999999999999 0  2 -0.8999999999999999 0  -2 -0.8 0  -1.9 -0.8 0  -1.8 -0.8 0  -1.7 -0.8 0  -1.6 -0.8 0  -1.5 -0.8 0  -1.4 -0.8 0  -1.3 -0.8 0  -1.2 -0.8 0  -1.1 -0.8 0  -1 -0.8 0  -0.8999999999999999 -0.8 0  -0.8 -0.8 0  -0.7 -0.8 0  -0.6000000000000001 -0.8 0  -0.5 -0.8 0  -0.3999999999999999 -0.8 0  -0.3 -0.8 0  -0.2 -0.8 0  -0.1000000000000001 -0.8 0  0 -0.8 0  0.1000000000000001 -0.8 0  0.2000000000000002 -0.8 0  0.2999999999999998 -0.8 0  0.3999999999999999 -0.8 0  0.5 -0.8 0  0.6000000000000001 -0.8 0  0.7000000000000002 -0.8 0  0.7999999999999998 -0.8 0  0.8999999999999999 -0.8 0  1 -0.8 0  1.1 -0.8 0  1.2 -0.8 0  1.3 -0.8 0  1.4 -0.8 0  1.5 -0.8 0  1.6 -0.8 0  1.7 -0.8 0  1.8 -0.8 0  1.9 -0.8 0  2 -0.8 0  -2 -0.7 0  -1.9 -0.7 0  -1.8 -0.7 0  -1.7 -0.7 0  -1.6 -0.7 0  -1.5 -0.7 0  -1.4 -0.7 0  -1.3 -0.7 0  -1.2 -0.7 0  -1.1 -0.7 0  -1 -0.7 0  -0.8999999999999999 -0.7 0  -0.8 -0.7 0  -0.7 -0.7 0  -0.6000000000000001 -0.7 0  -0.5 -0.7 0  -0.3999999999999999 -0.7 0  -0.3 -0.7 0  -0.2 -0.7 0  -0.1000000000000001 -0.7 0  0 -0.7 0  0.1000000000000001 -0.7 0  0.2000000000000002 -0.7 0  0.2999999999999998 -0.7 0  0.3999999999999999 -0.7 0  0.5 -0.7 0  0.600000000000000
[...]
<PointData  Scalars="f_1726"> 
<DataArray  type="Float64"  Name="f_1726"  format="ascii">0.0000000000000000e+00  0.0000000000000000e+00  0.0000000000000000e+00  0.0000000000000000e+00  0.0000000000000000e+00  0.0000000000000000e+00  0.0000000000000000e+00  0.0000000000000000e+00  0.0000000000000000e+00  0.0000000000000000e+00  0.0000000000000000e+00  0.0000000000000000e+00  0.0000000000000000e+00  0.0000000000000000e+00  0.0000000000000000e+00  0.0000000000000000e+00  0.0000000000000000e+00  0.0000000000000000e+00  0.0000000000000000e+00  0.0000000000000000e+00  0.0000000000000000e+00  0.0000000000000000e+00  0.0000000000000000e+00  0.0000000000000000e+00  0.0000000000000000e+00  0.0000000000000000e+00  0.0000000000000000e+00  0.0000000000000000e+00  0.0000000000000000e+00  0.0000000000000000e+00  0.0000000000000000e+00  0.0000000000000000e+00  0.0000000000000000e+00  0.0000000000000000e+00  0.0000000000000000e+00  0.0000000000000000e+00  0.0000000000000000e+00  0.0000000000000000e+00  0.0000000000000000e+00  0.0000000000000000e+00  0.0000000000000000e+00  0.0000000000000000e+00  -1.3494911695806878e-11  -1.5726419806916143e-11  1.0334277782989417e-10  -2.4902679356558240e-11  -5.2339507354678703e-10  2.8198997811154039e-10  2.5752532401258267e-09  3.5431012291431804e-10  -1.0689408595289539e-08  -2.1329287960343285e-08  -1.8800782626836602e-08  -6.4800927078907974e-09  1.7537473062907229e-09  1.7767292999889910e-09  -1.6864429726038373e-10  -3.4054435146554927e-10  5.7054266075714316e-11  5.2414441351491668e-11  -2.0381932427470764e-11  -3.7237150421971029e-12  4.4375535521551095e-12  -8.7051274633870016e-13  -3.7951717878815926e-13  2.8349391301014423e-13  -6.2237189111471085e-14  -1.4139761072758672e-14  1.5618370841710472e-14  -5.6025232846652046e-15  6.5756625662119587e-16  4.2096097402365946e-16  -3.1375109103428290e-16  1.1757934394506967e-16  -2.6002209619538179e-17  2.1528485763372388e-19  3.0487355787358281e-18  -1.8339308677005542e-18  7.4617016377657352e-19  -2.4734820297112389e-19  7.8407763686924844e-20  0.0000000000000000e+00  0.0000000000000000e+00  -1.5726419806916117e-11  1.1309811400375558e-10  -1.0061191151538072e-10  -4.9545401996046428e-10  1.0404455238691728e-09  1.9445710121609078e-09  -5.6023149694203799e-09  -1.0943515407227379e-08  1.6317562687283728e-08  6.9936873298812884e-08  9.1301960702914930e-08  5.3472987042599826e-08  4.3249942018993900e-09  -1.0365915384676891e-08  -2.3561953115554807e-09  1.9245131513746251e-09  3.2559600438490889e-10  -3.8551421982609740e-10  1.7600248521388497e-11  6.0435180870358584e-11  -2.0366941876945299e-11  -2.9454931636726473e-12  4.2483710941893727e-12  -1.2288665588514532e-12  -1.1448044867353411e-13  2.3066410519626732e-13  -9.1988590553428192e-14  1.2794519112258326e-14  6.0890999778788030e-15  -4.9046170277418598e-15  1.8476966452654961e-15  -3.9449317720738407e-16  -7.3665014184573943e-18  5.2018239308855180e-17  -2.9510365638729600e-17  1.1536879557469232e-17  -3.6481748306547783e-18  9.9100888197403332e-19  -2.4734820297112413e-19  0.0000000000000000e+00  0.0000000000000000e+00  1.0334277782989421e-10  -1.0061191151538086e-10  -4.5296918324192023e-10  1.3414941603087181e-09  7.4010348382137038e-10  -7.9584745671235460e-09  4.9382389264834882e-10  3.9756148879164642e-08  1.5098125533761667e-08  -1.6171780635424633e-07  -3.4415951219678556e-07  -3.0507479009375249e-07  -9.9003808013949729e-08  3.2529827570510540e-08  2.6498559759913643e-08  -4.7086718257399265e-09  -4.7419551693075446e-09  1.3994217171627127e-09  5.6111132018211283e-10  -3.6930880063732562e-10  1.5043858264903665e-11  5.3707432791069919e-11  -2.2027934174594563e-11  6.5483839352937224e-13  2.9801242554653552e-12  -1.4449676414458536e-12  2.6618201380352349e-13  6.7608696574591790e-14  -7.0744310041677330e-14  2.8668167869570395e-14  -6.5564577495772412e-15  7.5375031145450698e-17  7.5576335217403850e-16  -4.4816397378040245e-16  1.7793137434990166e-16  -5.6811019079721703e-17  1.5394947233854926e-17  -3.6481748306547613e-18  7.4617016377657101e-19  0.0000000000000000e+00  0.0000000000000000e+00  -2.4902679356558140e-11  -4.9545401996046428e-10  1.3414941603087189e-09  2.5176172477772525e-10  -8.1514710948087809e-09  9.2821864973954745e-09  3.5578554487481689e-08  -6.4887469650368094e-08  -1.7927345160881786e-07  1.9491300714532324e-07  1.0356805732330262e-06  1.3959351019822152e-06  7.9969832892119440e-07  3.6896308220917966e-08  -1.5881192917816278e-07  -2.2458710663395648e-08  2.9987532018856317e-08  9.0249090756349026e-10  -5.3361057668743195e-09  1.1112537640842782e-09  5.4716081167944299e-10  -3.5736032034912334e-10  4.7948645935409130e-11  3.4393940744419677e-11  -2.1949728401034965e-11  5.1592140700996820e-12  5.8058350309428520e-13  -9.9759691831333785e-13  4.4390712209298166e-13  -1.0972423557676440e-13  4.6334444442381519e-15  1.0862194984641708e-14  -6.8359890236058432e-15  2.7688815955317319e-15  -8.9182670356906740e-16  2.4256444987562851e-16  -5.6811019079721962e-17  1.1536879557469246e-17  -1.8339308677005607e-18  0.0000000000000000e+00  0.0000000000000000e+00  -5.2339507354678765e-10  1.0404455238691728e-09  7.4010348382137027e-10  -8.1514710948087858e-09  1.2123542680532352e-08  2.6819842384989852e-08  -1.0244688252210468e-07  -5.6950687367307884e-08  5.5268024290879915e-07  3.8052758620740879e-07  -2.2509261236961873e-06  -5.2025369008693965e-06  -4.6368975067896969e-06  -1.3851011754414537e-06  5.6353280138600653e-07  3.5306428905750566e-07  -1.0199653397021803e-07  -5.4369156501163586e-08  2.6687470091077304e-08  2.8730892756881359e-09  -5.1453748106381484e-09  1.2658290165380847e-09  3.1479477253604271e-10  -3.1785959090981628e-10  9.4006676751201580e-11  1.2337422742538494e-12  -1.3621555207296689e-11  6.8097399629644522e-12  -1.8256729799104151e-12  1.2930600674329060e-13  1.5393733285589687e-13  -1.0408811734707889e-13  4.3108652732012201e-14  -1.4009750091106546e-14  3.8188391814717688e-15  -8.9182670356906601e-16  1.7793137434990203e-16  -2.9510365638729538e-17  3.0487355787358247e-18  0.0000000000000000e+00  0.0000000000000000e+00  2.8198997811154246e-10  1.9445710121609103e-09  -7.9584745671235493e-09  9.2821864973954844e-09  2.6819842384989885e-08  -1.1066448323258700e-07  2.9968503178131709e-08  5.8333900823508810e-07  -6.2666469980182937e-07  -2.8496252019580494e-06  2.0728139573515881e-06  1.5242864210430400e-05  2.1345398848618713e-05  1.1891142311378555e-05  5.8087168010588583e-08  -2.3869382545783025e-06  -1.1251664296264159e-07  4.3699645759694988e-07  -4.8960482318346611e-08  -6.1610932213581131e-08  2.5541655073648887e-08  1.0575379247932690e-09  -4.2875440322443013e-09  1.6236934942887464e-09  -1.0753016735813154e-10  -1.7699223039888671e-10  1.0310368362393696e-10  -3.0171213084766012e-11  2.9613649681410905e-12  2.1367270372215203e-12  -1.5798690233144507e-12  6.7114491728845599e-13  -2.2029567120529269e-13  6.0185492132514708e-14  -1.4009750091106544e-14  2.7688815955317288e-15  -4.4816397378040363e-16  5.2018239308855204e-17  2.1528485763369714e-19  0.0000000000000000e+00  0.0000000000000000e+00  2.5752532401258275e-09  -5.6023149694203940e-09  4.9382389264835668e-10  3.5578554487481696e-08  -1.0244688252210474e-07  2.9968503178131577e-08  5.5497370431044561e-07  -1.1076723882222720e-06  -1.7591081538297624e-06  7.2606713316591086e-06  8.0722982629206956e-06  -3.0734321818465107e-05  -7.8892316308174629e-05  -7.0727952978316664e-05  -1.8948612345832151e-05  9.6440569302331492e-06  4.4001183246247812e-06  -1.9421970279891512e-06  -4.7911977604495495e-07  4.2874268544283842e-07  -4.5579603993574211e-08  -5.1247996426209273e-08  2.6539457388121912e-08  -3.6754786115506924e-09  -2.1150389275821268e-09  1.5330452724744142e-09  -4.9477118179405251e-10  6.1861209017703720e-11  2.8775461640501096e-11  -2.3881137102642722e-11  1.0448128608655299e-11  -3.4681473431993738e-12  9.4988392375296124e-13  -2.2029567120529304e-13  4.3108652732012283e-14  -6.8359890236058535e-15  7.5576335217404254e-16  -7.3665014184578688e-18  -2.6002209619538095e-17  0.0000000000000000e+00  0.0000000000000000e+00  3.5431012291432000e-10  -1.0943515407227371e-08  3.9756148879164688e-08  -6.4887469650368200e-08  -5.6950687367307898e-08  5.8333900823508863e-07  -1.1076723882222720e-06  -1.1950290501617040e-06  8.5103362694447251e-06  -3.4331675044842838e-06  -4.3838129330521013e-05  1.6728956717059524e-05  2.2370398677588554e-04  3.2829861409270717e-04  1.7643131046110201e-04  -7.8689712884842034e-06  -3.5019444123695663e-05  2.0654119463565362e-06  5.7680577102989298e-06  -1.5842570270730694e-06  -4.6949443344639842e-07  4.0502245532969198e-07  -8.7332568194810444e-08  -2.1331737493229030e-08  2.2206589907183016e-08  -8.0375828662122842e-09  1.2249467496224561e-09  3.6972365568213040e-10  -3.5904430358278260e-10  1.6262516854349244e-10  -5.4674727154941984e-11  1.5016490083183641e-11  -3.4681473431993592e-12  6.7114491728845407e-13  -1.0408811734707850e-13  1.0862194984641642e-14  7.5375031145458697e-17  -3.9449317720738343e-16  1.1757934394506940e-16  0.0000000000000000e+00  0.0000000000000000e+00  -1.0689408595289542e-08  1.6317562687283712e-08  1.5098125533761604e-08  -1.7927345160881789e-07  5.5268024290879968e-07  -6.2666469980182979e-07  -1.7591081538297654e-06  8.5103362694447302e-06  -7.6025638468923613e-06  -3.7405413082072371e-05  8.6278452048418449e-05  1.5661153683293297e-04  -4.0702429365736240e-04  -1.2016717092688594e-03  -1.0841987678793113e-03  -2.4979546174533601e-04  1.6288406895472094e-04  4.8038732007682893e-05  -3.3380233545634860e-05  -9.8146370871587954e-07  5.5713057957600430e-06  -1.7715336241732723e-06  -1.2493745905067279e-07  3.0898937908975488e-07  -1.2897150845441945e-07  2.3413340088790055e-08  4.3784617112735283e-09  -5.3590757595446853e-09  2.5304351503720955e-09  -8.6332272424214396e-10  2.3785371219335965e-10  -5.4674727154942237e-11  1.0448128608655316e-11  -1.5798690233144586e-12  1.5393733285589841e-13  4.6334444442378324e-15  -6.5564577495772089e-15  1.8476966452654866e-15  -3.1375109103428211e-16  0.0000000000000000e+00  0.0000000000000000e+00  -2.1329287960343265e-08  6.9936873298812844e-08  -1.6171780635424620e-07  1.9491300714532345e-07  3.8052758620740868e-07  -2.8496252019580528e-06  7.2606713316591179e-06  -3.4331675044842812e-06  -3.7405413082072385e-05  1.0377916880964046e-04  4.6759558971356286e-05  -6.4305468582178131e-04  4.0349475052277112e-06  3.2670613214761633e-03  5.0895141061382881e-03  2.6069539471110337e-03  -2.7512025317066706e-04  -4.9244199649335196e-04  9.1068970900449030e-05  6.2644149350505140e-05  -3.2014935449308349e-05  1.6681699561961964e-06  4.0173062875986127e-06  -2.0338117960302500e-06  4.3609849416322593e-07  4.3650800082790450e-08  -7.9185796609807493e-08  3.9350785158229818e-08  -1.3657926606499809e-08  3.7762015360939862e-09  -8.6332272424214313e-10  1.6262516854349288e-10  -2.3881137102642687e-11  2.1367270372215182e-12  1.2930600674329133e-13  -1.0972423557676438e-13  2.8668167869570496e-14  -4.9046170277418590e-15  4.2096097402366054e-16  0.0000000000000000e+00  0.0000000000000000e+00  -1.8800782626836569e-08  9.1301960702914824e-08  -3.4415951219678530e-07  1.0356805732330252e-06  -2.2509261236961873e-06  2.0728139573515881e-06  8.0722982629207024e-06  -4.3838129330521067e-05  8.6278452048418476e-05  4.6759558971356314e-05  -6.4567299229331796e-04  8.1694686771670072e-04  2.8555939014854488e-03  -5.1017043717429197e-03  -1.8413858777229532e-02  -1.6730833612071463e-02  -3.0691112242165202e-03  2.7014951596546115e-03  3.6234281847428030e-04  -5.0757062957065564e-04  8.6011155613927140e-05  4.5694931363586094e-05  -3.1228501448052752e-05  7.9531274685990880e-06  2.3780967018864494e-07  -1.1530290141818607e-06  6.1135049919120444e-07  -2.1656489459596176e-07  6.0119395885018882e-08  -1.3657926606499810e-08  2.5304351503720935e-09  -3.5904430358278368e-10  2.8775461640501161e-11  2.9613649681410610e-12  -1.8256729799104082e-12  4.4390712209297964e-13  -7.0744310041677191e-14  6.0890999778787557e-15  6.5756625662120179e-16  0.0000000000000000e+00  0.0000000000000000e+00  -6.4800927078907874e-09  5.3472987042599753e-08  -3.0507479009375212e-07  1.3959351019822139e-06  -5.2025369008693923e-06  1.5242864210430398e-05  -3.0734321818465093e-05  1.6728956717059572e-05  1.5661153683293316e-04  -6.4305468582178163e-04  8.1694686771670072e-04  2.1721490762506416e-03  -8.6733192300299244e-03  -4.2677594583148057e-03  4.7280589929766678e-02  7.9804315324640870e-02  3.8202737307542568e-02  -7.0053234988023084e-03  -6.3596322399088112e-03  2.2273035241874260e-03  3.5911068387461297e-04  -4.5829587041942713e-04  1.4215165041259696e-04  -4.3722461605223389e-06  -1.6415599153040869e-05  9.4824367528023388e-06  -3.4435512179672556e-06  9.6044514052127720e-07  -2.1656489459596205e-07  3.9350785158229897e-08  -5.3590757595446985e-09  3.6972365568213391e-10  6.1861209017703268e-11  -3.0171213084765954e-11  6.8097399629644441e-12  -9.9759691831333663e-13  6.7608696574591954e-14  1.2794519112258287e-14  -5.6025232846651983e-15  0.0000000000000000e+00  0.0000000000000000e+00  1.7537473062907251e-09  4.3249942018993619e-09  -9.9003808013949504e-08  7.9969832892119271e-07  -4.6368975067896919e-06  2.1345398848618707e-05  -7.8892316308174602e-05  2.2370398677588541e-04  -4.0702429365736261e-04  4.0349475052270556e-06  2.8555939014854510e-03  -8.6733192300299244e-03  2.5934830285270559e-03  4.9010904268556504e-02  -5.6777882495252577e-02  -2.8458997615445730e-01  -2.6062619295622930e-01  -3.1900495726119679e-02  4.3376909670752993e-02  -1.5729413905867249e-03  -6.1548378175954902e-03  2.4806376822251834e-03  -2.1800752808673611e-04  -2.2511601015738327e-04  1.4667067443680082e-04  -5.4947775110280364e-05  1.5410833263267312e-05  -3.4435512179672408e-06  6.1135049919120254e-07  -7.9185796609807176e-08  4.3784617112734902e-09  1.2249467496224621e-09  -4.9477118179405158e-10  1.0310368362393665e-10  -1.3621555207296622e-11  5.8058350309427480e-13  2.6618201380352541e-13  -9.1988590553428179e-14  1.5618370841710469e-14  0.0000000000000000e+00  0.0000000000000000e+00  1.7767292999889897e-09  -1.0365915384676886e-08  3.2529827570510547e-08  3.6896308220917694e-08  -1.3851011754414513e-06  1.1891142311378543e-05  -7.0727952978316623e-05  3.2829861409270711e-04  -1.2016717092688590e-03  3.2670613214761664e-03  -5.1017043717429197e-03  -4.2677594583148196e-03  4.9010904268556546e-02  -9.6299180185577871e-02  -1.4116461595623633e-01  6.7132760530426039e-01  1.2736940543134183e+00  5.4968385541931120e-01  -1.5863807463967089e-01  -6.5944354009808678e-02  4.1686162823789383e-02  -6.2240767858263314e-03  -2.8770518372225962e-03  2.2574991016101847e-03  -8.8077796999514444e-04  2.4868735239067354e-04  -5.4947775110280635e-05  9.4824367528023591e-06  -1.1530290141818682e-06  4.3650800082791846e-08  2.3413340088789787e-08  -8.0375828662122660e-09  1.5330452724744062e-09  -1.7699223039888581e-10  1.2337422742537878e-12  5.1592140700996747e-12  -1.4449676414458560e-12  2.3066410519626671e-13  -1.4139761072758605e-14  0.0000000000000000e+00  0.0000000000000000e+00  -1.6864429726038443e-10  -2.3561953115554769e-09  2.6498559759913630e-08  -1.5881192917816278e-07  5.6353280138600727e-07  5.8087168010581589e-08  -1.8948612345832103e-05  1.7643131046110182e-04  -1.0841987678793109e-03  5.0895141061382855e-03  -1.8413858777229539e-02  4.7280589929766699e-02  -5.6777882495252570e-02  -1.4116461595623647e-01  7.6553570038130736e-01  -4.3035611033098514e-01  -4.4568029132824050e+00  -4.1188925200940414e+00  -1.5877407714793185e-01  6.4547344860655065e-01  -1.5093760066880413e-01  -3.1163331887430531e-02  3.4423563468932022e-02  -1.4204889347353158e-02  4.0443131360188454e-03  -8.8077796999514347e-04  1.4667067443680114e-04  -1.6415599153040845e-05  2.3780967018864306e-07  4.3609849416322636e-07  -1.2897150845441940e-07  2.2206589907183073e-08  -2.1150389275821268e-09  -1.0753016735813109e-10  9.4006676751201541e-11  -2.1949728401034933e-11  2.9801242554653597e-12  -1.1448044867353358e-13  -6.2237189111471085e-14  0.0000000000000000e+00  0.0000000000000000e+00  -3.4054435146554917e-10  1.9245131513746263e-09  -4.7086718257399439e-09  -2.2458710663395536e-08  3.5306428905750523e-07  -2.3869382545783016e-06  9.6440569302331542e-06  -7.8689712884842780e-06  -2.4979546174533541e-04  2.6069539471110298e-03  -1.6730833612071446e-02  7.9804315324640843e-02  -2.8458997615445725e-01  6.7132760530426017e-01  -4.3035611033098425e-01  -3.4800290971508137e+00  9.0799136547870862e+00  2.0974077917668822e+01  7.5329889294840555e+00  -3.3618903331301562e+00  -1.6623945682441948e-01  5.1461835206595474e-01  -2.3109040261056329e-01  6.6507473768054534e-02  -1.4204889347353160e-02  2.2574991016101839e-03  -2.2511601015738422e-04  -4.3722461605222119e-06  7.9531274685990592e-06  -2.0338117960302432e-06  3.0898937908975324e-07  -2.1331737493228841e-08  -3.6754786115507221e-09  1.6236934942887514e-09  -3.1785959090981679e-10  3.4393940744419696e-11  6.5483839352937416e-13  -1.2288665588514526e-12  2.8349391301014433e-13  0.0000000000000000e+00  0.0000000000000000e+00  5.7054266075714556e-11  3.2559600438490749e-10  -4.7419551693075396e-09  2.9987532018856303e-08  -1.0199653397021814e-07  -1.1251664296264098e-07  4.4001183246247779e-06  -3.5019444123695636e-05  1.6288406895472092e-04  -2.7512025317066706e-04  -3.0691112242165175e-03  3.8202737307542561e-02  -2.6062619295622924e-01  1.2736940543134183e+00  -4.4568029132824050e+00  9.0799136547870827e+00  3.7521007379368658e+00  -7.1424381702783236e+01  -6.6742093453403072e+01  5.8270198192835423e+00  7.3094774575712744e+00  -3.8100178124042179e+00  1.1128289596399916e+00  -2.3109040261056374e-01  3.4423563468932120e-02  -2.8770518372226131e-03  -2.1800752808673397e-04  1.4215165041259642e-04  -3.1228501448052711e-05  4.0173062875986101e-06  -1.2493745905067314e-07  -8.7332568194810537e-08  2.6539457388121866e-08  -4.2875440322442972e-09  3.1479477253604152e-10  4.7948645935409350e-11  -2.2027934174594666e-11  4.2483710941893751e-12  -3.7951717878815986e-13  0.0000000000000000e+00  0.0000000000000000e+00  5.2414441351491707e-11  -3.8551421982609792e-10  1.3994217171627148e-09  9.0249090756347713e-10  -5.4369156501163526e-08  4.3699645759694998e-07  -1.9421970279891529e-06  2.0654119463565451e-06  4.8038732007682832e-05  -4.9244199649335206e-04  2.7014951596546128e-03  -7.0053234988023180e-03  -3.1900495726119596e-02  5.4968385541931064e-01  -4.1188925200940387e+00  2.0974077917668822e+01  -7.1424381702783236e+01  1.0146544059408963e+02  3.7037126234384255e+02  8.4549851309025414e+01  -6.4297034854160884e+01  1.9200772427776798e+01  -3.8100178124042037e+00  5.1461835206595319e-01  -3.1163331887430305e-02  -6.2240767858263392e-03  2.4806376822251882e-03  -4.5829587041942583e-04  4.5694931363585911e-05  1.6681699561962311e-06  -1.7715336241732755e-06  4.0502245532969357e-07  -5.1247996426209326e-08  1.0575379247932853e-09  1.2658290165380818e-09  -3.5736032034912225e-10  5.3707432791069919e-11  -2.9454931636726243e-12  -8.7051274633870289e-13  0.0000000000000000e+00  0.0000000000000000e+00  -2.0381932427470784e-11  1.7600248521388542e-11  5.6111132018211356e-10  -5.3361057668743252e-09  2.6687470091077334e-08  -4.8960482318346710e-08  -4.7911977604495474e-07  5.7680577102989306e-06  -3.3380233545634873e-05  9.1068970900449138e-05  3.6234281847428014e-04  -6.3596322399088129e-03  4.3376909670752993e-02  -1.5863807463967095e-01  -1.5877407714793068e-01  7.5329889294840520e+00  -6.6742093453403072e+01  3.7037126234384255e+02  -1.2046775456174214e+03  -1.1424055270888557e+03  3.5488615482866027e+02  -6.4297034854161168e+01  7.3094774575713011e+00  -1.6623945682442623e-01  -1.5093760066880291e-01  4.1686162823789133e-02  -6.1548378175954738e-03  3.5911068387460787e-04  8.6011155613927777e-05  -3.2014935449308430e-05  5.5713057957600489e-06  -4.6949443344640007e-07  -4.5579603993574165e-08  2.5541655073648907e-08  -5.145374810638152