<?xml version="1.0"?>
<VTKFile type="UnstructuredGrid"  version="0.1"  >
<UnstructuredGrid>
<Piece  NumberOfPoints="1681" NumberOfCells="3200">
<Points>
<DataArray  type="Float64"  NumberOfComponents="3"  format="ascii">-2 -2 0  -1.9 -2 0  -1.8 -2 0  -1.7 -2 0  -1.6 -2 0  -1.5 -2 0  -1.4 -2 0  -1.3 -2 0  -1.2 -2 0  -1.1 -2 0  -1 -2 0  -0.8999999999999999 -2 0  -0.8 -2 0  -0.7 -2 0  -0.6000000000000001 -2 0  -0.5 -2 0  -0.3999999999999999 -2 0  -0.3 -2 0  -0.2 -2 0  -0.1000000000000001 -2 0  0 -2 0  0.1000000000000001 -2 0  0.2000000000000002 -2 0  0.2999999999999998 -2 0  0.3999999999999999 -2 0  0.5 -2 0  0.6000000000000001 -2 0  0.7000000000000002 -2 0  0.7999999999999998 -2 0  0.8999999999999999 -2 0  1 -2 0  1.1 -2 0  1.2 -2 0  1.3 -2 0  1.4 -2 0  1.5 -2 0  1.6 -2 0  1.7 -2 0  1.8 -2 0  1.9 -2 0  2 -2 0  -2 -1.9 0  -1.9 -1.9 0  -1.8 -1.9 0  -1.7 -1.9 0  -1.6 -1.9 0  -1.5 -1.9 0  -1.4 -1.9 0  -1.3 -1.9 0  -1.2 -1.9 0  -1.1 -1.9 0  -1 -1.9 0  -0.8999999999999999 -1.9 0  -0.8 -1.9 0  -0.7 -1.9 0  -0.6000000000000001 -1.9 0  -0.5 -1.9 0  -0.3999999999999999 -1.9 0  -0.3 -1.9 0  -0.2 -1.9 0  -0.1000000000000001 -1.9 0  0 -1.9 0  0.1000000000000001 -1.9 0  0.2000000000000002 -1.9 0  0.2999999999999998 -1.9 0  0.3999999999999999 -1.9 0  0.5 -1.9 0  0.6000000000000001 -1.9 0  0.7000000000000002 -1.9 0  0.7999999999999998 -1.9 0  0.8999999999999999 -1.9 0  1 -1.9 0  1.1 -1.9 0  1.2 -1.9 0  1.3 -1.9 0  1.4 -1.9 0  1.5 -1.9 0  1.6 -1.9 0  1.7 -1.9 0  1.8 -1.9 0  1.9 -1.9 0  2 -1.9 0  -2 -1.8 0  -1.9 -1.8 0  -1.8 -1.8 0  -1.7 -1.8 0  -1.6 -1.8 0  -1.5 -1.8 0  -1.4 -1.8 0  -1.3 -1.8 0  -1.2 -1.8 0  -1.1 -1.8 0  -1 -1.8 0  -0.8999999999999999 -1.8 0  -0.8 -1.8 0  -0.7 -1.8 0  -0.6000000000000001 -1.8 0  -0.5 -1.8 0  -0.3999999999999999 -1.8 0  -0.3 -1.8 0  -0.2 -1.8 0  -0.1000000000000001 -1.8 0  0 -1.8 0  0.1000000000000001 -1.8 0  0.2000000000000002 -1.8 0  0.2999999999999998 -1.8 0  0.3999999999999999 -1.8 0  0.5 -1.8 0  0.6000000000000001 -1.8 0  0.7000000000000002 -1.8 0  0.7999999999999998 -1.8 0  0.8999999999999999 -1.8 0  1 -1.8 0  1.1 -1.8 0  1.2 -1.8 0  1.3 -1.8 0  1.4 -1.8 0  1.5 -1.8 0  1.6 -1.8 0  1.7 -1.8 0  1.8 -1.8 0  1.9 -1.8 0  2 -1.8 0  -2 -1.7 0  -1.9 -1.7 0  -1.8 -1.7 0  -1.7 -1.7 0  -1.6 -1.7 0  -1.5 -1.7 0  -1.4 -1.7 0  -1.3 -1.7 0  -1.2 -1.7 0  -1.1 -1.7 0  -1 -1.7 0  -0.8999999999999999 -1.7 0  -0.8 -1.7 0  -0.7 -1.7 0  -0.6000000000000001 -1.7 0  -0.5 -1.7 0  -0.3999999999999999 -1.7 0  -0.3 -1.7 0  -0.2 -1.7 0  -0.1000000000000001 -1.7 0  0 -1.7 0  0.1000000000000001 -1.7 0  0.2000000000000002 -1.7 0  0.2999999999999998 -1.7 0  0.3999999999999999 -1.7 0  0.5 -1.7 0  0.6000000000000001 -1.7 0  0.7000000000000002 -1.7 0  0.7999999999999998 -1.7 0  0.8999999999999999 -1.7 0  1 -1.7 0  1.1 -1.7 0  1.2 -1.7 0  1.3 -1.7 0  1.4 -1.7 0  1.5 -1.7 0  1.6 -1.7 0  1.7 -1.7 0  1.8 -1.7 0  1.9 -1.7 0  2 -1.7 0  -2 -1.6 0  -1.9 -1.6 0  -1.8 -1.6 0  -1.7 -1.6 0  -1.6 -1.6 0  -1.5 -1.6 0  -1.4 -1.6 0  -1.3 -1.6 0  -1.2 -1.6 0  -1.1 -1.6 0  -1 -1.6 0  -0.8999999999999999 -1.6 0  -0.8 -1.6 0  -0.7 -1.6 0  -0.6000000000000001 -1.6 0  -0.5 -1.6 0  -0.3999999999999999 -1.6 0  -0.3 -1.6 0  -0.2 -1.6 0  -0.1000000000000001 -1.6 0  0 -1.6 0  0.1000000000000001 -1.6 0  0.2000000000000002 -1.6 0  0.2999999999999998 -1.6 0  0.3999999999999999 -1.6 0  0.5 -1.6 0  0.6000000000000001 -1.6 0  0.7000000000000002 -1.6 0  0.7999999999999998 -1.6 0  0.8999999999999999 -1.6 0  1 -1.6 0  1.1 -1.6 0  1.2 -1.6 0  1.3 -1.6 0  1.4 -1.6 0  1.5 -1.6 0  1.6 -1.6 0  1.7 -1.6 0  1.8 -1.6 0  1.9 -1.6 0  2 -1.6 0  -2 -1.5 0  -1.9 -1.5 0  -1.8 -1.5 0  -1.7 -1.5 0  -1.6 -1.5 0  -1.5 -1.5 0  -1.4 -1.5 0  -1.3 -1.5 0  -1.2 -1.5 0  -1.1 -1.5 0  -1 -1.5 0  -0.8999999999999999 -1.5 0  -0.8 -1.5 0  -0.7 -1.5 0  -0.6000000000000001 -1.5 0  -0.5 -1.5 0  -0.3999999999999999 -1.5 0  -0.3 -1.5 0  -0.2 -1.5 0  -0.1000000000000001 -1.5 0  0 -1.5 0  0.1000000000000001 -1.5 0  0.2000000000000002 -1.5 0  0.2999999999999998 -1.5 0  0.3999999999999999 -1.5 0  0.5 -1.5 0  0.6000000000000001 -1.5 0  0.7000000000000002 -1.5 0  0.7999999999999998 -1.5 0  0.8999999999999999 -1.5 0  1 -1.5 0  1.1 -1.5 0  1.2 -1.5 0  1.3 -1.5 0  1.4 -1.5 0  1.5 -1.5 0  1.6 -1.5 0  1.7 -1.5 0  1.8 -1.5 0  1.9 -1.5 0  2 -1.5 0  -2 -1.4 0  -1.9 -1.4 0  -1.8 -1.4 0  -1.7 -1.4 0  -1.6 -1.4 0  -1.5 -1.4 0  -1.4 -1.4 0  -1.3 -1.4 0  -1.2 -1.4 0  -1.1 -1.4 0  -1 -1.4 0  -0.8999999999999999 -1.4 0  -0.8 -1.4 0  -0.7 -1.4 0  -0.6000000000000001 -1.4 0  -0.5 -1.4 0  -0.3999999999999999 -1.4 0  -0.3 -1.4 0  -0.2 -1.4 0  -0.1000000000000001 -1.4 0  0 -1.4 0  0.1000000000000001 -1.4 0  0.2000000000000002 -1.4 0  0.2999999999999998 -1.4 0  0.3999999999999999 -1.4 0  0.5 -1.4 0  0.6000000000000001 -1.4 0  0.7000000000000002 -1.4 0  0.7999999999999998 -1.4 0  0.8999999999999999 -1.4 0  1 -1.4 0  1.1 -1.4 0  1.2 -1.4 0  1.3 -1.4 0  1.4 -1.4 0  1.5 -1.4 0  1.6 -1.4 0  1.7 -1.4 0  1.8 -1.4 0  1.9 -1.4 0  2 -1.4 0  -2 -1.3 0  -1.9 -1.3 0  -1.8 -1.3 0  -1.7 -1.3 0  -1.6 -1.3 0  -1.5 -1.3 0  -1.4 -1.3 0  -1.3 -1.3 0  -1.2 -1.3 0  -1.1 -1.3 0  -1 -1.3 0  -0.8999999999999999 -1.3 0  -0.8 -1.3 0  -0.7 -1.3 0  -0.6000000000000001 -1.3 0  -0.5 -1.3 0  -0.3999999999999999 -1.3 0  -0.3 -1.3 0  -0.2 -1.3 0  -0.1000000000000001 -1.3 0  0 -1.3 0  0.1000000000000001 -1.3 0  0.2000000000000002 -1.3 0  0.2999999999999998 -1.3 0  0.3999999999999999 -1.3 0  0.5 -1.3 0  0.6000000000000001 -1.3 0  0.7000000000000002 -1.3 0  0.7999999999999998 -1.3 0  0.8999999999999999 -1.3 0  1 -1.3 0  1.1 -1.3 0  1.2 -1.3 0  1.3 -1.3 0  1.4 -1.3 0  1.5 -1.3 0  1.6 -1.3 0  1.7 -1.3 0  1.8 -1.3 0  1.9 -1.3 0  2 -1.3 0  -2 -1.2 0  -1.9 -1.2 0  -1.8 -1.2 0  -1.7 -1.2 0  -1.6 -1.2 0  -1.5 -1.2 0  -1.4 -1.2 0  -1.3 -1.2 0  -1.2 -1.2 0  -1.1 -1.2 0  -1 -1.2 0  -0.8999999999999999 -1.2 0  -0.8 -1.2 0  -0.7 -1.2 0  -0.6000000000000001 -1.2 0  -0.5 -1.2 0  -0.3999999999999999 -1.2 0  -0.3 -1.2 0  -0.2 -1.2 0  -0.1000000000000001 -1.2 0  0 -1.2 0  0.1000000000000001 -1.2 0  0.2000000000000002 -1.2 0  0.2999999999999998 -1.2 0  0.3999999999999999 -1.2 0  0.5 -1.2 0  0.6000000000000001 -1.2 0  0.7000000000000002 -1.2 0  0.7999999999999998 -1.2 0  0.8999999999999999 -1.2 0  1 -1.2 0  1.1 -1.2 0  1.2 -1.2 0  1.3 -1.2 0  1.4 -1.2 0  1.5 -1.2 0  1.6 -1.2 0  1.7 -1.2 0  1.8 -1.2 0  1.9 -1.2 0  2 -1.2 0  -2 -1.1 0  -1.9 -1.1 0  -1.8 -1.1 0  -1.7 -1.1 0  -1.6 -1.1 0  -1.5 -1.1 0  -1.4 -1.1 0  -1.3 -1.1 0  -1.2 -1.1 0  -1.1 -1.1 0  -1 -1.1 0  -0.8999999999999999 -1.1 0  -0.8 -1.1 0  -0.7 -1.1 0  -0.6000000000000001 -1.1 0  -0.5 -1.1 0  -0.3999999999999999 -1.1 0  -0.3 -1.1 0  -0.2 -1.1 0  -0.1000000000000001 -1.1 0  0 -1.1 0  0.1000000000000001 -1.1 0  0.2000000000000002 -1.1 0  0.2999999999999998 -1.1 0  0.3999999999999999 -1.1 0  0.5 -1.1 0  0.6000000000000001 -1.1 0  0.7000000000000002 -1.1 0  0.7999999999999998 -1.1 0  0.8999999999999999 -1.1 0  1 -1.1 0  1.1 -1.1 0  1.2 -1.1 0  1.3 -1.1 0  1.4 -1.1 0  1.5 -1.1 0  1.6 -1.1 0  1.7 -1.1 0  1.8 -1.1 0  1.9 -1.1 0  2 -1.1 0  -2 -1 0  -1.9 -1 0  -1.8 -1 0  -1.7 -1 0  -1.6 -1 0  -1.5 -1 0  -1.4 -1 0  -1.3 -1 0  -1.2 -1 0  -1.1 -1 0  -1 -1 0  -0.8999999999999999 -1 0  -0.8 -1 0  -0.7 -1 0  -0.6000000000000001 -1 0  -0.5 -1 0  -0.3999999999999999 -1 0  -0.3 -1 0  -0.2 -1 0  -0.1000000000000001 -1 0  0 -1 0  0.1000000000000001 -1 0  0.2000000000000002 -1 0  0.2999999999999998 -1 0  0.3999999999999999 -1 0  0.5 -1 0  0.6000000000000001 -1 0  0.7000000000000002 -1 0  0.7999999999999998 -1 0  0.8999999999999999 -1 0  1 -1 0  1.1 -1 0  1.2 -1 0  1.3 -1 0  1.4 -1 0  1.5 -1 0  1.6 -1 0  1.7 -1 0  1.8 -1 0  1.9 -1 0  2 -1 0  -2 -0.8999999999999999 0  -1.9 -0.8999999999999999 0  -1.8 -0.8999999999999999 0  -1.7 -0.8999999999999999 0  -1.6 -0.8999999999999999 0  -1.5 -0.8999999999999999 0  -1.4 -0.8999999999999999 0  -1.3 -0.8999999999999999 0  -1.2 -0.8999999999999999 0  -1.1 -0.8999999999999999 0  -1 -0.8999999999999999 0  -0.8999999999999999 -0.8999999999999999 0  -0.8 -0.8999999999999999 0  -0.7 -0.8999999999999999 0  -0.6000000000000001 -0.8999999999999999 0  -0.5 -0.8999999999999999 0  -0.3999999999999999 -0.8999999999999999 0  -0.3 -0.8999999999999999 0  -0.2 -0.8999999999999999 0  -0.1000000000000001 -0.8999999999999999 0  0 -0.8999999999999999 0  0.1000000000000001 -0.8999999999999999 0  0.2000000000000002 -0.8999999999999999 0  0.2999999999999998 -0.8999999999999999 0  0.3999999999999999 -0.8999999999999999 0  0.5 -0.8999999999999999 0  0.6000000000000001 -0.8999999999999999 0  0.7000000000000002 -0.8999999999999999 0  0.7999999999999998 -0.8999999999999999 0  0.8999999999999999 -0.8999999999999999 0  1 -0.8999999999999999 0  1.1 -0.8999999999999999 0  1.2 -0.8999999999999999 0  1.3 -0.8999999999999999 0  1.4 -0.8999999999999999 0  1.5 -0.8999999999999999 0  1.6 -0.8999999999999999 0  1.7 -0.8999999999999999 0  1.8 -0.8999999999999999 0  1.9 -0.8999999999999999 0  2 -0.8999999999999999 0  -2 -0.8 0  -1.9 -0.8 0  -1.8 -0.8 0  -1.7 -0.8 0  -1.6 -0.8 0  -1.5 -0.8 0  -1.4 -0.8 0  -1.3 -0.8 0  -1.2 -0.8 0  -1.1 -0.8 0  -1 -0.8 0  -0.8999999999999999 -0.8 0  -0.8 -0.8 0  -0.7 -0.8 0  -0.6000000000000001 -0.8 0  -0.5 -0.8 0  -0.3999999999999999 -0.8 0  -0.3 -0.8 0  -0.2 -0.8 0  -0.1000000000000001 -0.8 0  0 -0.8 0  0.1000000000000001 -0.8 0  0.2000000000000002 -0.8 0  0.2999999999999998 -0.8 0  0.3999999999999999 -0.8 0  0.5 -0.8 0  0.6000000000000001 -0.8 0  0.7000000000000002 -0.8 0  0.7999999999999998 -0.8 0  0.8999999999999999 -0.8 0  1 -0.8 0  1.1 -0.8 0  1.2 -0.8 0  1.3 -0.8 0  1.4 -0.8 0  1.5 -0.8 0  1.6 -0.8 0  1.7 -0.8 0  1.8 -0.8 0  1.9 -0.8 0  2 -0.8 0  -2 -0.7 0  -1.9 -0.7 0  -1.8 -0.7 0  -1.7 -0.7 0  -1.6 -0.7 0  -1.5 -0.7 0  -1.4 -0.7 0  -1.3 -0.7 0  -1.2 -0.7 0  -1.1 -0.7 0  -1 -0.7 0  -0.8999999999999999 -0.7 0  -0.8 -0.7 0  -0.7 -0.7 0  -0.6000000000000001 -0.7 0  -0.5 -0.7 0  -0.3999999999999999 -0.7 0  -0.3 -0.7 0  -0.2 -0.7 0  -0.1000000000000001 -0.7 0  0 -0.7 0  0.1000000000000001 -0.7 0  0.2000000000000002 -0.7 0  0.2999999999999998 -0.7 0  0.3999999999999999 -0.7 0  0.5 -0.7 0  0.600000000000000
[...]
<PointData  Scalars="f_1726"> 
<DataArray  type="Float64"  Name="f_1726"  format="ascii">0.0000000000000000e+00  0.0000000000000000e+00  0.0000000000000000e+00  0.0000000000000000e+00  0.0000000000000000e+00  0.0000000000000000e+00  0.0000000000000000e+00  0.0000000000000000e+00  0.0000000000000000e+00  0.0000000000000000e+00  0.0000000000000000e+00  0.0000000000000000e+00  0.0000000000000000e+00  0.0000000000000000e+00  0.0000000000000000e+00  0.0000000000000000e+00  0.0000000000000000e+00  0.0000000000000000e+00  0.0000000000000000e+00  0.0000000000000000e+00  0.0000000000000000e+00  0.0000000000000000e+00  0.0000000000000000e+00  0.0000000000000000e+00  0.0000000000000000e+00  0.0000000000000000e+00  0.0000000000000000e+00  0.0000000000000000e+00  0.0000000000000000e+00  0.0000000000000000e+00  0.0000000000000000e+00  0.0000000000000000e+00  0.0000000000000000e+00  0.0000000000000000e+00  0.0000000000000000e+00  0.0000000000000000e+00  0.0000000000000000e+00  0.0000000000000000e+00  0.0000000000000000e+00  0.0000000000000000e+00  0.0000000000000000e+00  0.0000000000000000e+00  -1.0863769901655796e-11  -1.2660194450347095e-11  8.3193738843859635e-11  -2.0047332251045748e-11  -4.2134722885509933e-10  2.2700958004257265e-10  2.0731487000328763e-09  2.8522925795539189e-10  -8.6052638195543062e-09  -1.7170655265519466e-08  -1.5135139898133893e-08  -5.2166503721396883e-09  1.4118141437791669e-09  1.4303152719856511e-09  -1.3576323298451203e-10  -2.7414743860679422e-10  4.5930231521781512e-11  4.2195046785179577e-11  -1.6408008368957300e-11  -2.9976915973695188e-12  3.5723509574255119e-12  -7.0078636940029463e-13  -3.0552162155764378e-13  2.2822028842316817e-13  -5.0102625128176666e-14  -1.1382891138633380e-14  1.2573212103032411e-14  -4.5101831864659975e-15  5.2935866999748189e-16  3.3888500069184845e-16  -2.5257813731741597e-16  9.4654560667023890e-17  -2.0932483932374006e-17  1.7331014899268746e-19  2.4543148236137543e-18  -1.4763640853191606e-18  6.0068721822524152e-19  -1.9912201155797748e-19  6.3120376212822902e-20  0.0000000000000000e+00  0.0000000000000000e+00  -1.2660194450347095e-11  9.1047049031806989e-11  -8.0995317398666219e-11  -3.9885392294736484e-10  8.3758686394624634e-10  1.5654324022075711e-09  -4.5100154870443361e-09  -8.8098266946262279e-09  1.3136080501036226e-08  5.6301079717004401e-08  7.3500554505642552e-08  4.3047204774635758e-08  3.4817376278223275e-09  -8.3448430117667526e-09  -1.8968011266092582e-09  1.5492852802987013e-09  2.6211361380269211e-10  -3.1034940223494806e-10  1.4168677384360513e-11  4.8651959623013278e-11  -1.6395940569235533e-11  -2.3712018795189819e-12  3.4200539480713840e-12  -9.8927090714864591e-13  -9.2159865930358874e-14  1.8569086037089068e-13  -7.4053310156937536e-14  1.0299934877017396e-14  4.9018906206260719e-15  -3.9483497221909535e-15  1.4874459095914445e-15  -3.1757770643921933e-16  -5.9302334238473557e-18  4.1876093395724906e-17  -2.3756644670190937e-17  9.2875009278056859e-18  -2.9368796784020656e-18  7.9778902648235042e-19  -1.9912201155797765e-19  0.0000000000000000e+00  0.0000000000000000e+00  8.3193738843859713e-11  -8.0995317398666245e-11  -3.6465247718591632e-10  1.0799391808200699e-09  5.9580337633090527e-10  -6.4067878630339049e-09  3.9754162625150669e-10  3.2004778047818950e-08  1.2154400520906369e-08  -1.3018721995631521e-07  -2.7705774103981095e-07  -2.4559347975609712e-07  -7.9700750467707771e-08  2.6187393414094864e-08  2.1332059256558535e-08  -3.7906085204797966e-09  -3.8174025147071708e-09  1.1265724351023065e-09  4.5170983027379622e-10  -2.9730360029158303e-10  1.2110713897729049e-11  4.3235939960401591e-11  -1.7733084415511397e-11  5.2716266622800212e-13  2.3990808476189251e-12  -1.1632381393709761e-12  2.1428374005732520e-13  5.4426834313072972e-14  -5.6951088192965544e-14  2.3078652625331836e-14  -5.2781263017428212e-15  6.0678944268212244e-17  6.0840999505568772e-16  -3.6078415325050275e-16  1.4323958191021967e-16  -4.5734411093067260e-17  1.2393350039385511e-17  -2.9368796784020517e-18  6.0068721822523940e-19  0.0000000000000000e+00  0.0000000000000000e+00  -2.0047332251045648e-11  -3.9885392294736525e-10  1.0799391808200703e-09  2.0267501630848092e-10  -6.5621553019510810e-09  7.4724118664143310e-09  2.8641701264753134e-08  -5.2236172838485803e-08  -1.4431999050123249e-07  1.5691025685811084e-07  8.3375094945708948e-07  1.1237656153238317e-06  6.4377884286845271e-07  2.9702528758092645e-08  -1.2784791002120432e-07  -1.8079871171799119e-08  2.4140776547105210e-08  7.2652965644470794e-10  -4.2957098593119065e-09  8.9458941766262893e-10  4.4047929258667727e-10  -2.8768474961278729e-10  3.8599960361363580e-11  2.7688055074466242e-11  -1.7670126646829109e-11  4.1533072460461698e-12  4.6738546561022838e-13  -8.0309257440524667e-13  3.5735727219488352e-13  -8.8330985397364668e-14  3.7300484381790395e-15  8.7443615490076395e-15  -5.5031565583177493e-15  2.2290247774005712e-15  -7.1794468301240996e-16  1.9527096057911530e-16  -4.5734411093067481e-17  9.2875009278056967e-18  -1.4763640853191656e-18  0.0000000000000000e+00  0.0000000000000000e+00  -4.2134722885509995e-10  8.3758686394624665e-10  5.9580337633090589e-10  -6.5621553019510851e-09  9.7597806523721635e-09  2.1590700483037411e-08  -8.2472518824107959e-08  -4.5846847852424902e-08  4.4492258441513407e-07  3.0633502693272726e-07  -1.8120565754468437e-06  -4.1881832997454971e-06  -3.7328282471812589e-06  -1.1150440106387976e-06  4.5365918831431208e-07  2.8422632791322568e-07  -8.2109976026235434e-08  -4.3768645493195881e-08  2.1484137196456831e-08  2.3129147860737203e-09  -4.1421662668542839e-09  1.0190266880206317e-09  2.5341832923132530e-10  -2.5588559114111456e-10  7.5677924277319649e-11  9.9319599027865352e-13  -1.0965721363019607e-11  5.4820253526181013e-12  -1.4697162616914118e-12  1.0409484225061995e-13  1.2392372778109320e-13  -8.3793757369051107e-14  3.4703634570390133e-14  -1.1278228772461972e-14  3.0742691092841757e-15  -7.1794468301240877e-16  1.4323958191021994e-16  -2.3756644670190882e-17  2.4543148236137481e-18  0.0000000000000000e+00  0.0000000000000000e+00  2.2700958004257420e-10  1.5654324022075715e-09  -6.4067878630339073e-09  7.4724118664143326e-09  2.1590700483037421e-08  -8.9087910260133600e-08  2.4125457814253453e-08  4.6960372197879545e-07  -5.0448207869730812e-07  -2.2940255703674422e-06  1.6686714510777497e-06  1.2270919080986165e-05  1.7183624967513882e-05  9.5726920524273944e-06  4.6761745592002994e-08  -1.9215500295015526e-06  -9.0578949074020721e-08  3.5179399985603919e-07  -3.9414516090970356e-08  -4.9598471341078218e-08  2.0561725032539374e-08  8.5134671024180380e-10  -3.4515892255888188e-09  1.3071172980145762e-09  -8.6564700977498583e-11  -1.4248354555975390e-10  8.3001261523749149e-11  -2.4288644786654630e-11  2.3839791125647216e-12  1.7201232137172114e-12  -1.2718374103459186e-12  5.4028986009245966e-13  -1.7734398981274871e-13  4.8450953417406598e-14  -1.1278228772461971e-14  2.2290247774005676e-15  -3.6078415325050344e-16  4.1876093395724844e-17  1.7331014899267513e-19  0.0000000000000000e+00  0.0000000000000000e+00  2.0731487000328784e-09  -4.5100154870443468e-09  3.9754162625151491e-10  2.8641701264753141e-08  -8.2472518824107973e-08  2.4125457814253374e-08  4.4676888304290227e-07  -8.9170631296560041e-07  -1.4161297714360760e-06  5.8450373338272511e-06  6.4984190250874225e-06  -2.4741962588980098e-05  -6.3510454214158574e-05  -5.6937920313351162e-05  -1.5254146831116881e-05  7.7637273788961523e-06  3.5422145840076692e-06  -1.5635212805660599e-06  -3.8570441360520778e-07  3.4514948942691063e-07  -3.6692817348974386e-08  -4.1256026985949690e-08  2.1364982956423567e-08  -2.9588599625109635e-09  -1.7026636972686955e-09  1.2341430210438621e-09  -3.9830421970460418e-10  4.9799950955987687e-11  2.3165027020774099e-11  -1.9224963032075116e-11  8.4110268867195827e-12  -2.7919526685946259e-12  7.6468231979172791e-13  -1.7734398981274901e-13  3.4703634570390190e-14  -5.5031565583177548e-15  6.0840999505569039e-16  -5.9302334238476523e-18  -2.0932483932373935e-17  0.0000000000000000e+00  0.0000000000000000e+00  2.8522925795539121e-10  -8.8098266946262279e-09  3.2004778047818997e-08  -5.2236172838485889e-08  -4.5846847852424962e-08  4.6960372197879561e-07  -8.9170631296560030e-07  -9.6203079496881168e-07  6.8510515000769133e-06  -2.7637929497640278e-06  -3.5290883015839704e-05  1.3467263852149790e-05  1.8008777628173730e-04  2.6428928791315172e-04  1.4203198979750007e-04  -6.3347352963702862e-06  -2.8191602258644809e-05  1.6627126314817116e-06  4.6434428884502946e-06  -1.2753698723757401e-06  -3.7795575177085083e-07  3.2605406088523138e-07  -7.0305085885362310e-08  -1.7172627205924699e-08  1.7876907125448500e-08  -6.4704721892439498e-09  9.8611535441276193e-10  2.9763756985365903e-10  -2.8904040178607318e-10  1.3091767112662520e-10  -4.4014638156666108e-11  1.2088681769210268e-11  -2.7919526685946150e-12  5.4028986009245784e-13  -8.3793757369050741e-14  8.7443615490075732e-15  6.0678944268219923e-17  -3.1757770643921869e-16  9.4654560667023569e-17  0.0000000000000000e+00  0.0000000000000000e+00  -8.6052638195543045e-09  1.3136080501036224e-08  1.2154400520906348e-08  -1.4431999050123265e-07  4.4492258441513481e-07  -5.0448207869730865e-07  -1.4161297714360784e-06  6.8510515000769150e-06  -6.1202700808297098e-06  -3.0112371978416432e-05  6.9456493799533334e-05  1.2607653450791582e-04  -3.2766559502953242e-04  -9.6737831570121622e-04  -8.7280941197706054e-04  -2.0109212124169696e-04  1.3112609297913008e-04  3.8672482092708512e-05  -2.6871993287365221e-05  -7.9010490314124090e-07  4.4850522612685831e-06  -1.4261326120455265e-06  -1.0057804288158454e-07  2.4874483006284597e-07  -1.0382556205637277e-07  1.8848373749111807e-08  3.5247804229252975e-09  -4.3142013263654534e-09  2.0370689222994984e-09  -6.9499820661675712e-10  1.9147868898810303e-10  -4.4014638156666309e-11  8.4110268867195989e-12  -1.2718374103459234e-12  1.2392372778109421e-13  3.7300484381788146e-15  -5.2781263017427936e-15  1.4874459095914346e-15  -2.5257813731741479e-16  0.0000000000000000e+00  0.0000000000000000e+00  -1.7170655265519449e-08  5.6301079717004335e-08  -1.3018721995631510e-07  1.5691025685811102e-07  3.0633502693272747e-07  -2.2940255703674456e-06  5.8450373338272587e-06  -2.7637929497640265e-06  -3.0112371978416442e-05  8.3545045417625187e-05  3.7642713106863750e-05  -5.1767646194528737e-04  3.2482421708379328e-06  2.6300729675870897e-03  4.0971968847708538e-03  2.0986686288897746e-03  -2.2147926515592511e-04  -3.9642916236925363e-04  7.3312991395895898e-05  5.0430239157497310e-05  -2.5772891292480108e-05  1.3429220560666298e-06  3.2340405122107730e-06  -1.6372736534623815e-06  3.5107111493882162e-07  3.5140077890984763e-08  -6.3746713816257262e-08  3.1678449258866366e-08  -1.0995001325782646e-08  3.0399446484078183e-09  -6.9499820661675630e-10  1.3091767112662546e-10  -1.9224963032075080e-11  1.7201232137172066e-12  1.0409484225062038e-13  -8.8330985397364555e-14  2.3078652625331877e-14  -3.9483497221909448e-15  3.3888500069184791e-16  0.0000000000000000e+00  0.0000000000000000e+00  -1.5135139898133873e-08  7.3500554505642473e-08  -2.7705774103981063e-07  8.3375094945708832e-07  -1.8120565754468439e-06  1.6686714510777520e-06  6.4984190250874276e-06  -3.5290883015839758e-05  6.9456493799533375e-05  3.7642713106863662e-05  -5.1978426966422402e-04  6.5766438438499277e-04  2.2988305353601312e-03  -4.1070103791866729e-03  -1.4823655705695632e-02  -1.3468774803536440e-02  -2.4707177708200513e-03  2.1747768689767471e-03  2.9169579573055937e-04  -4.0860812229008618e-04  6.9241312920598826e-05  3.6785659009551086e-05  -2.5139790593115494e-05  6.4024833037066171e-06  1.9144323397987582e-07  -9.2821962694997795e-07  4.9215373187949856e-07  -1.7434061346232433e-07  4.8397744145620050e-08  -1.0995001325782648e-08  2.0370689222994964e-09  -2.8904040178607396e-10  2.3165027020774135e-11  2.3839791125647026e-12  -1.4697162616914061e-12  3.5735727219488170e-13  -5.6951088192965405e-14  4.9018906206260183e-15  5.2935866999748840e-16  0.0000000000000000e+00  0.0000000000000000e+00  -5.2166503721396792e-09  4.3047204774635705e-08  -2.4559347975609690e-07  1.1237656153238307e-06  -4.1881832997454928e-06  1.2270919080986165e-05  -2.4741962588980115e-05  1.3467263852149802e-05  1.2607653450791607e-04  -5.1767646194528780e-04  6.5766438438499321e-04  1.7486389157932302e-03  -6.9822572035005527e-03  -3.4356621070112873e-03  3.8062157158918496e-02  6.4244638156133085e-02  3.0754239603620375e-02  -5.6394754032586588e-03  -5.1196764284858996e-03  1.7930397421894691e-03  2.8909383972125307e-04  -3.6894060482535294e-04  1.1443593378257608e-04  -3.5197767360027521e-06  -1.3215002514752576e-05  7.6336187528709374e-06  -2.7721521207276041e-06  7.7318438571396266e-07  -1.7434061346232460e-07  3.1678449258866419e-08  -4.3142013263654608e-09  2.9763756985366151e-10  4.9799950955987344e-11  -2.4288644786654572e-11  5.4820253526180908e-12  -8.0309257440524425e-13  5.4426834313072845e-14  1.0299934877017407e-14  -4.5101831864659935e-15  0.0000000000000000e+00  0.0000000000000000e+00  1.4118141437791712e-09  3.4817376278222944e-09  -7.9700750467707572e-08  6.4377884286845154e-07  -3.7328282471812555e-06  1.7183624967513868e-05  -6.3510454214158547e-05  1.8008777628173730e-04  -3.2766559502953269e-04  3.2482421708374674e-06  2.2988305353601329e-03  -6.9822572035005553e-03  2.0878241740938477e-03  3.9455107128349508e-02  -4.5707735243894362e-02  -2.2910264897994001e-01  -2.0981115359952904e-01  -2.5680764211669562e-02  3.4919588681294612e-02  -1.2662604781203655e-03  -4.9548113644302611e-03  1.9969806099171977e-03  -1.7550197254710169e-04  -1.8122449339839092e-04  1.1807387067950734e-04  -4.4234449165865624e-05  1.2406138723896927e-05  -2.7721521207275935e-06  4.9215373187949687e-07  -6.3746713816256944e-08  3.5247804229252594e-09  9.8611535441276710e-10  -3.9830421970460299e-10  8.3001261523748813e-11  -1.0965721363019528e-11  4.6738546561021616e-13  2.1428374005732709e-13  -7.4053310156937510e-14  1.2573212103032390e-14  0.0000000000000000e+00  0.0000000000000000e+00  1.4303152719856496e-09  -8.3448430117667543e-09  2.6187393414094907e-08  2.9702528758092231e-08  -1.1150440106387951e-06  9.5726920524273860e-06  -5.6937920313351122e-05  2.6428928791315156e-04  -9.6737831570121611e-04  2.6300729675870918e-03  -4.1070103791866729e-03  -3.4356621070112947e-03  3.9455107128349549e-02  -7.7523451715454633e-02  -1.1364134427650004e-01  5.4043692889974204e-01  1.0253582567322390e+00  4.4251041122306284e-01  -1.2770795240272484e-01  -5.3086993410893887e-02  3.3558491615867381e-02  -5.0105506116401213e-03  -2.3161047555749531e-03  1.8173480009289783e-03  -7.0905015284004208e-04  2.0020006315889623e-04  -4.4234449165865841e-05  7.6336187528709509e-06  -9.2821962694998282e-07  3.5140077890985722e-08  1.8848373749111579e-08  -6.4704721892439300e-09  1.2341430210438544e-09  -1.4248354555975292e-10  9.9319599027855315e-13  4.1533072460461682e-12  -1.1632381393709775e-12  1.8569086037088995e-13  -1.1382891138633289e-14  0.0000000000000000e+00  0.0000000000000000e+00  -1.3576323298451309e-10  -1.8968011266092516e-09  2.1332059256558509e-08  -1.2784791002120432e-07  4.5365918831431293e-07  4.6761745591995582e-08  -1.5254146831116837e-05  1.4203198979749997e-04  -8.7280941197705945e-04  4.0971968847708521e-03  -1.4823655705695644e-02  3.8062157158918516e-02  -4.5707735243894390e-02  -1.1364134427650022e-01  6.1627700039189981e-01  -3.4644834021849319e-01  -3.5878472151821099e+00  -3.3158201844222814e+00  -1.2781743811030941e-01  5.1962363158468516e-01  -1.2150886201674048e-01  -2.5087327329394272e-02  2.7711902171076903e-02  -1.1435321165982577e-02  3.2557817576238431e-03  -7.0905015284004089e-04  1.1807387067950753e-04  -1.3215002514752541e-05  1.9144323397987170e-07  3.5107111493882204e-07  -1.0382556205637268e-07  1.7876907125448533e-08  -1.7026636972686915e-09  -8.6564700977498945e-11  7.5677924277319597e-11  -1.7670126646829073e-11  2.3990808476189267e-12  -9.2159865930358041e-14  -5.0102625128176679e-14  0.0000000000000000e+00  0.0000000000000000e+00  -2.7414743860679412e-10  1.5492852802987028e-09  -3.7906085204798123e-09  -1.8079871171799007e-08  2.8422632791322515e-07  -1.9215500295015513e-06  7.7637273788961557e-06  -6.3347352963703540e-06  -2.0109212124169658e-04  2.0986686288897707e-03  -1.3468774803536431e-02  6.4244638156133058e-02  -2.2910264897994009e-01  5.4043692889974215e-01  -3.4644834021849236e-01  -2.8015178027626857e+00  7.3095767424072369e+00  1.6884701547751018e+01  6.0642603854209263e+00  -2.7064128937631562e+00  -1.3382727121348223e-01  4.1428173003539981e-01  -1.8603404135072779e-01  5.3540320088278442e-02  -1.1435321165982577e-02  1.8173480009289762e-03  -1.8122449339839144e-04  -3.5197767360026686e-06  6.4024833037065909e-06  -1.6372736534623741e-06  2.4874483006284417e-07  -1.7172627205924464e-08  -2.9588599625110011e-09  1.3071172980145813e-09  -2.5588559114111502e-10  2.7688055074466251e-11  5.2716266622800131e-13  -9.8927090714864429e-13  2.2822028842316802e-13  0.0000000000000000e+00  0.0000000000000000e+00  4.5930231521781686e-11  2.6211361380269118e-10  -3.8174025147071667e-09  2.4140776547105207e-08  -8.2109976026235540e-08  -9.0578949074019556e-08  3.5422145840076636e-06  -2.8191602258644795e-05  1.3112609297913016e-04  -2.2147926515592595e-04  -2.4707177708200435e-03  3.0754239603620340e-02  -2.0981115359952893e-01  1.0253582567322392e+00  -3.5878472151821126e+00  7.3095767424072360e+00  3.0205428522696076e+00  -5.7498564323927297e+01  -5.3729195297948557e+01  4.6909089852550752e+00  5.8843275888250552e+00  -3.0671676679463116e+00  8.9585749280481064e-01  -1.8603404135072799e-01  2.7711902171076962e-02  -2.3161047555749627e-03  -1.7550197254710020e-04  1.1443593378257555e-04  -2.5139790593115430e-05  3.2340405122107654e-06  -1.0057804288158400e-07  -7.0305085885362443e-08  2.1364982956423537e-08  -3.4515892255888130e-09  2.5341832923132370e-10  3.8599960361363774e-11  -1.7733084415511472e-11  3.4200539480713840e-12  -3.0552162155764408e-13  0.0000000000000000e+00  0.0000000000000000e+00  4.2195046785179519e-11  -3.1034940223494796e-10  1.1265724351023075e-09  7.2652965644469771e-10  -4.3768645493195841e-08  3.5179399985603919e-07  -1.5635212805660624e-06  1.6627126314817315e-06  3.8672482092708397e-05  -3.9642916236925331e-04  2.1747768689767476e-03  -5.6394754032586718e-03  -2.5680764211669455e-02  4.4251041122306234e-01  -3.3158201844222810e+00  1.6884701547751028e+01  -5.7498564323927312e+01  8.1682431455021529e+01  2.9815891077964682e+02  6.8064923324090131e+01  -5.1760856814749374e+01  1.5457142535748321e+01  -3.0671676679462978e+00  4.1428173003539809e-01  -2.5087327329394039e-02  -5.0105506116401299e-03  1.9969806099171994e-03  -3.6894060482535137e-04  3.6785659009550842e-05  1.3429220560666702e-06  -1.4261326120455298e-06  3.2605406088523254e-07  -4.1256026985949670e-08  8.5134671024180380e-10  1.0190266880206305e-09  -2.8768474961278631e-10  4.3235939960401520e-11  -2.3712018795189520e-12  -7.0078636940029726e-13  0.0000000000000000e+00  0.0000000000000000e+00  -1.6408008368957309e-11  1.4168677384360666e-11  4.5170983027379560e-10  -4.2957098593119057e-09  2.1484137196456848e-08  -3.9414516090970509e-08  -3.8570441360520672e-07  4.6434428884502921e-06  -2.6871993287365238e-05  7.3312991395896074e-05  2.9169579573055829e-04  -5.1196764284858962e-03  3.4919588681294605e-02  -1.2770795240272501e-01  -1.2781743811030752e-01  6.0642603854209147e+00  -5.3729195297948550e+01  2.9815891077964687e+02  -9.6979809548109836e+02  -9.1966743172757504e+02  2.8569297926861589e+02  -5.1760856814749587e+01  5.8843275888250703e+00  -1.3382727121348695e-01  -1.2150886201673942e-01  3.3558491615867138e-02  -4.9548113644302377e-03  2.8909383972124765e-04  6.9241312920599449e-05  -2.5772891292480159e-05  4.4850522612685823e-06  -3.7795575177085093e-07  -3.6692817348974472e-08  2.0561725032539397e-08  -4.142166266854285