<?xml version="1.0"?>
<VTKFile type="UnstructuredGrid"  version="0.1"  >
<UnstructuredGrid>
<Piece  NumberOfPoints="1681" NumberOfCells="3200">
<Points>
<DataArray  type="Float64"  NumberOfComponents="3"  format="ascii">-2 -2 0  -1.9 -2 0  -1.8 -2 0  -1.7 -2 0  -1.6 -2 0  -1.5 -2 0  -1.4 -2 0  -1.3 -2 0  -1.2 -2 0  -1.1 -2 0  -1 -2 0  -0.8999999999999999 -2 0  -0.8 -2 0  -0.7 -2 0  -0.6000000000000001 -2 0  -0.5 -2 0  -0.3999999999999999 -2 0  -0.3 -2 0  -0.2 -2 0  -0.1000000000000001 -2 0  0 -2 0  0.1000000000000001 -2 0  0.2000000000000002 -2 0  0.2999999999999998 -2 0  0.3999999999999999 -2 0  0.5 -2 0  0.6000000000000001 -2 0  0.7000000000000002 -2 0  0.7999999999999998 -2 0  0.8999999999999999 -2 0  1 -2 0  1.1 -2 0  1.2 -2 0  1.3 -2 0  1.4 -2 0  1.5 -2 0  1.6 -2 0  1.7 -2 0  1.8 -2 0  1.9 -2 0  2 -2 0  -2 -1.9 0  -1.9 -1.9 0  -1.8 -1.9 0  -1.7 -1.9 0  -1.6 -1.9 0  -1.5 -1.9 0  -1.4 -1.9 0  -1.3 -1.9 0  -1.2 -1.9 0  -1.1 -1.9 0  -1 -1.9 0  -0.8999999999999999 -1.9 0  -0.8 -1.9 0  -0.7 -1.9 0  -0.6000000000000001 -1.9 0  -0.5 -1.9 0  -0.3999999999999999 -1.9 0  -0.3 -1.9 0  -0.2 -1.9 0  -0.1000000000000001 -1.9 0  0 -1.9 0  0.1000000000000001 -1.9 0  0.2000000000000002 -1.9 0  0.2999999999999998 -1.9 0  0.3999999999999999 -1.9 0  0.5 -1.9 0  0.6000000000000001 -1.9 0  0.7000000000000002 -1.9 0  0.7999999999999998 -1.9 0  0.8999999999999999 -1.9 0  1 -1.9 0  1.1 -1.9 0  1.2 -1.9 0  1.3 -1.9 0  1.4 -1.9 0  1.5 -1.9 0  1.6 -1.9 0  1.7 -1.9 0  1.8 -1.9 0  1.9 -1.9 0  2 -1.9 0  -2 -1.8 0  -1.9 -1.8 0  -1.8 -1.8 0  -1.7 -1.8 0  -1.6 -1.8 0  -1.5 -1.8 0  -1.4 -1.8 0  -1.3 -1.8 0  -1.2 -1.8 0  -1.1 -1.8 0  -1 -1.8 0  -0.8999999999999999 -1.8 0  -0.8 -1.8 0  -0.7 -1.8 0  -0.6000000000000001 -1.8 0  -0.5 -1.8 0  -0.3999999999999999 -1.8 0  -0.3 -1.8 0  -0.2 -1.8 0  -0.1000000000000001 -1.8 0  0 -1.8 0  0.1000000000000001 -1.8 0  0.2000000000000002 -1.8 0  0.2999999999999998 -1.8 0  0.3999999999999999 -1.8 0  0.5 -1.8 0  0.6000000000000001 -1.8 0  0.7000000000000002 -1.8 0  0.7999999999999998 -1.8 0  0.8999999999999999 -1.8 0  1 -1.8 0  1.1 -1.8 0  1.2 -1.8 0  1.3 -1.8 0  1.4 -1.8 0  1.5 -1.8 0  1.6 -1.8 0  1.7 -1.8 0  1.8 -1.8 0  1.9 -1.8 0  2 -1.8 0  -2 -1.7 0  -1.9 -1.7 0  -1.8 -1.7 0  -1.7 -1.7 0  -1.6 -1.7 0  -1.5 -1.7 0  -1.4 -1.7 0  -1.3 -1.7 0  -1.2 -1.7 0  -1.1 -1.7 0  -1 -1.7 0  -0.8999999999999999 -1.7 0  -0.8 -1.7 0  -0.7 -1.7 0  -0.6000000000000001 -1.7 0  -0.5 -1.7 0  -0.3999999999999999 -1.7 0  -0.3 -1.7 0  -0.2 -1.7 0  -0.1000000000000001 -1.7 0  0 -1.7 0  0.1000000000000001 -1.7 0  0.2000000000000002 -1.7 0  0.2999999999999998 -1.7 0  0.3999999999999999 -1.7 0  0.5 -1.7 0  0.6000000000000001 -1.7 0  0.7000000000000002 -1.7 0  0.7999999999999998 -1.7 0  0.8999999999999999 -1.7 0  1 -1.7 0  1.1 -1.7 0  1.2 -1.7 0  1.3 -1.7 0  1.4 -1.7 0  1.5 -1.7 0  1.6 -1.7 0  1.7 -1.7 0  1.8 -1.7 0  1.9 -1.7 0  2 -1.7 0  -2 -1.6 0  -1.9 -1.6 0  -1.8 -1.6 0  -1.7 -1.6 0  -1.6 -1.6 0  -1.5 -1.6 0  -1.4 -1.6 0  -1.3 -1.6 0  -1.2 -1.6 0  -1.1 -1.6 0  -1 -1.6 0  -0.8999999999999999 -1.6 0  -0.8 -1.6 0  -0.7 -1.6 0  -0.6000000000000001 -1.6 0  -0.5 -1.6 0  -0.3999999999999999 -1.6 0  -0.3 -1.6 0  -0.2 -1.6 0  -0.1000000000000001 -1.6 0  0 -1.6 0  0.1000000000000001 -1.6 0  0.2000000000000002 -1.6 0  0.2999999999999998 -1.6 0  0.3999999999999999 -1.6 0  0.5 -1.6 0  0.6000000000000001 -1.6 0  0.7000000000000002 -1.6 0  0.7999999999999998 -1.6 0  0.8999999999999999 -1.6 0  1 -1.6 0  1.1 -1.6 0  1.2 -1.6 0  1.3 -1.6 0  1.4 -1.6 0  1.5 -1.6 0  1.6 -1.6 0  1.7 -1.6 0  1.8 -1.6 0  1.9 -1.6 0  2 -1.6 0  -2 -1.5 0  -1.9 -1.5 0  -1.8 -1.5 0  -1.7 -1.5 0  -1.6 -1.5 0  -1.5 -1.5 0  -1.4 -1.5 0  -1.3 -1.5 0  -1.2 -1.5 0  -1.1 -1.5 0  -1 -1.5 0  -0.8999999999999999 -1.5 0  -0.8 -1.5 0  -0.7 -1.5 0  -0.6000000000000001 -1.5 0  -0.5 -1.5 0  -0.3999999999999999 -1.5 0  -0.3 -1.5 0  -0.2 -1.5 0  -0.1000000000000001 -1.5 0  0 -1.5 0  0.1000000000000001 -1.5 0  0.2000000000000002 -1.5 0  0.2999999999999998 -1.5 0  0.3999999999999999 -1.5 0  0.5 -1.5 0  0.6000000000000001 -1.5 0  0.7000000000000002 -1.5 0  0.7999999999999998 -1.5 0  0.8999999999999999 -1.5 0  1 -1.5 0  1.1 -1.5 0  1.2 -1.5 0  1.3 -1.5 0  1.4 -1.5 0  1.5 -1.5 0  1.6 -1.5 0  1.7 -1.5 0  1.8 -1.5 0  1.9 -1.5 0  2 -1.5 0  -2 -1.4 0  -1.9 -1.4 0  -1.8 -1.4 0  -1.7 -1.4 0  -1.6 -1.4 0  -1.5 -1.4 0  -1.4 -1.4 0  -1.3 -1.4 0  -1.2 -1.4 0  -1.1 -1.4 0  -1 -1.4 0  -0.8999999999999999 -1.4 0  -0.8 -1.4 0  -0.7 -1.4 0  -0.6000000000000001 -1.4 0  -0.5 -1.4 0  -0.3999999999999999 -1.4 0  -0.3 -1.4 0  -0.2 -1.4 0  -0.1000000000000001 -1.4 0  0 -1.4 0  0.1000000000000001 -1.4 0  0.2000000000000002 -1.4 0  0.2999999999999998 -1.4 0  0.3999999999999999 -1.4 0  0.5 -1.4 0  0.6000000000000001 -1.4 0  0.7000000000000002 -1.4 0  0.7999999999999998 -1.4 0  0.8999999999999999 -1.4 0  1 -1.4 0  1.1 -1.4 0  1.2 -1.4 0  1.3 -1.4 0  1.4 -1.4 0  1.5 -1.4 0  1.6 -1.4 0  1.7 -1.4 0  1.8 -1.4 0  1.9 -1.4 0  2 -1.4 0  -2 -1.3 0  -1.9 -1.3 0  -1.8 -1.3 0  -1.7 -1.3 0  -1.6 -1.3 0  -1.5 -1.3 0  -1.4 -1.3 0  -1.3 -1.3 0  -1.2 -1.3 0  -1.1 -1.3 0  -1 -1.3 0  -0.8999999999999999 -1.3 0  -0.8 -1.3 0  -0.7 -1.3 0  -0.6000000000000001 -1.3 0  -0.5 -1.3 0  -0.3999999999999999 -1.3 0  -0.3 -1.3 0  -0.2 -1.3 0  -0.1000000000000001 -1.3 0  0 -1.3 0  0.1000000000000001 -1.3 0  0.2000000000000002 -1.3 0  0.2999999999999998 -1.3 0  0.3999999999999999 -1.3 0  0.5 -1.3 0  0.6000000000000001 -1.3 0  0.7000000000000002 -1.3 0  0.7999999999999998 -1.3 0  0.8999999999999999 -1.3 0  1 -1.3 0  1.1 -1.3 0  1.2 -1.3 0  1.3 -1.3 0  1.4 -1.3 0  1.5 -1.3 0  1.6 -1.3 0  1.7 -1.3 0  1.8 -1.3 0  1.9 -1.3 0  2 -1.3 0  -2 -1.2 0  -1.9 -1.2 0  -1.8 -1.2 0  -1.7 -1.2 0  -1.6 -1.2 0  -1.5 -1.2 0  -1.4 -1.2 0  -1.3 -1.2 0  -1.2 -1.2 0  -1.1 -1.2 0  -1 -1.2 0  -0.8999999999999999 -1.2 0  -0.8 -1.2 0  -0.7 -1.2 0  -0.6000000000000001 -1.2 0  -0.5 -1.2 0  -0.3999999999999999 -1.2 0  -0.3 -1.2 0  -0.2 -1.2 0  -0.1000000000000001 -1.2 0  0 -1.2 0  0.1000000000000001 -1.2 0  0.2000000000000002 -1.2 0  0.2999999999999998 -1.2 0  0.3999999999999999 -1.2 0  0.5 -1.2 0  0.6000000000000001 -1.2 0  0.7000000000000002 -1.2 0  0.7999999999999998 -1.2 0  0.8999999999999999 -1.2 0  1 -1.2 0  1.1 -1.2 0  1.2 -1.2 0  1.3 -1.2 0  1.4 -1.2 0  1.5 -1.2 0  1.6 -1.2 0  1.7 -1.2 0  1.8 -1.2 0  1.9 -1.2 0  2 -1.2 0  -2 -1.1 0  -1.9 -1.1 0  -1.8 -1.1 0  -1.7 -1.1 0  -1.6 -1.1 0  -1.5 -1.1 0  -1.4 -1.1 0  -1.3 -1.1 0  -1.2 -1.1 0  -1.1 -1.1 0  -1 -1.1 0  -0.8999999999999999 -1.1 0  -0.8 -1.1 0  -0.7 -1.1 0  -0.6000000000000001 -1.1 0  -0.5 -1.1 0  -0.3999999999999999 -1.1 0  -0.3 -1.1 0  -0.2 -1.1 0  -0.1000000000000001 -1.1 0  0 -1.1 0  0.1000000000000001 -1.1 0  0.2000000000000002 -1.1 0  0.2999999999999998 -1.1 0  0.3999999999999999 -1.1 0  0.5 -1.1 0  0.6000000000000001 -1.1 0  0.7000000000000002 -1.1 0  0.7999999999999998 -1.1 0  0.8999999999999999 -1.1 0  1 -1.1 0  1.1 -1.1 0  1.2 -1.1 0  1.3 -1.1 0  1.4 -1.1 0  1.5 -1.1 0  1.6 -1.1 0  1.7 -1.1 0  1.8 -1.1 0  1.9 -1.1 0  2 -1.1 0  -2 -1 0  -1.9 -1 0  -1.8 -1 0  -1.7 -1 0  -1.6 -1 0  -1.5 -1 0  -1.4 -1 0  -1.3 -1 0  -1.2 -1 0  -1.1 -1 0  -1 -1 0  -0.8999999999999999 -1 0  -0.8 -1 0  -0.7 -1 0  -0.6000000000000001 -1 0  -0.5 -1 0  -0.3999999999999999 -1 0  -0.3 -1 0  -0.2 -1 0  -0.1000000000000001 -1 0  0 -1 0  0.1000000000000001 -1 0  0.2000000000000002 -1 0  0.2999999999999998 -1 0  0.3999999999999999 -1 0  0.5 -1 0  0.6000000000000001 -1 0  0.7000000000000002 -1 0  0.7999999999999998 -1 0  0.8999999999999999 -1 0  1 -1 0  1.1 -1 0  1.2 -1 0  1.3 -1 0  1.4 -1 0  1.5 -1 0  1.6 -1 0  1.7 -1 0  1.8 -1 0  1.9 -1 0  2 -1 0  -2 -0.8999999999999999 0  -1.9 -0.8999999999999999 0  -1.8 -0.8999999999999999 0  -1.7 -0.8999999999999999 0  -1.6 -0.8999999999999999 0  -1.5 -0.8999999999999999 0  -1.4 -0.8999999999999999 0  -1.3 -0.8999999999999999 0  -1.2 -0.8999999999999999 0  -1.1 -0.8999999999999999 0  -1 -0.8999999999999999 0  -0.8999999999999999 -0.8999999999999999 0  -0.8 -0.8999999999999999 0  -0.7 -0.8999999999999999 0  -0.6000000000000001 -0.8999999999999999 0  -0.5 -0.8999999999999999 0  -0.3999999999999999 -0.8999999999999999 0  -0.3 -0.8999999999999999 0  -0.2 -0.8999999999999999 0  -0.1000000000000001 -0.8999999999999999 0  0 -0.8999999999999999 0  0.1000000000000001 -0.8999999999999999 0  0.2000000000000002 -0.8999999999999999 0  0.2999999999999998 -0.8999999999999999 0  0.3999999999999999 -0.8999999999999999 0  0.5 -0.8999999999999999 0  0.6000000000000001 -0.8999999999999999 0  0.7000000000000002 -0.8999999999999999 0  0.7999999999999998 -0.8999999999999999 0  0.8999999999999999 -0.8999999999999999 0  1 -0.8999999999999999 0  1.1 -0.8999999999999999 0  1.2 -0.8999999999999999 0  1.3 -0.8999999999999999 0  1.4 -0.8999999999999999 0  1.5 -0.8999999999999999 0  1.6 -0.8999999999999999 0  1.7 -0.8999999999999999 0  1.8 -0.8999999999999999 0  1.9 -0.8999999999999999 0  2 -0.8999999999999999 0  -2 -0.8 0  -1.9 -0.8 0  -1.8 -0.8 0  -1.7 -0.8 0  -1.6 -0.8 0  -1.5 -0.8 0  -1.4 -0.8 0  -1.3 -0.8 0  -1.2 -0.8 0  -1.1 -0.8 0  -1 -0.8 0  -0.8999999999999999 -0.8 0  -0.8 -0.8 0  -0.7 -0.8 0  -0.6000000000000001 -0.8 0  -0.5 -0.8 0  -0.3999999999999999 -0.8 0  -0.3 -0.8 0  -0.2 -0.8 0  -0.1000000000000001 -0.8 0  0 -0.8 0  0.1000000000000001 -0.8 0  0.2000000000000002 -0.8 0  0.2999999999999998 -0.8 0  0.3999999999999999 -0.8 0  0.5 -0.8 0  0.6000000000000001 -0.8 0  0.7000000000000002 -0.8 0  0.7999999999999998 -0.8 0  0.8999999999999999 -0.8 0  1 -0.8 0  1.1 -0.8 0  1.2 -0.8 0  1.3 -0.8 0  1.4 -0.8 0  1.5 -0.8 0  1.6 -0.8 0  1.7 -0.8 0  1.8 -0.8 0  1.9 -0.8 0  2 -0.8 0  -2 -0.7 0  -1.9 -0.7 0  -1.8 -0.7 0  -1.7 -0.7 0  -1.6 -0.7 0  -1.5 -0.7 0  -1.4 -0.7 0  -1.3 -0.7 0  -1.2 -0.7 0  -1.1 -0.7 0  -1 -0.7 0  -0.8999999999999999 -0.7 0  -0.8 -0.7 0  -0.7 -0.7 0  -0.6000000000000001 -0.7 0  -0.5 -0.7 0  -0.3999999999999999 -0.7 0  -0.3 -0.7 0  -0.2 -0.7 0  -0.1000000000000001 -0.7 0  0 -0.7 0  0.1000000000000001 -0.7 0  0.2000000000000002 -0.7 0  0.2999999999999998 -0.7 0  0.3999999999999999 -0.7 0  0.5 -0.7 0  0.600000000000000
[...]
<PointData  Scalars="f_1726"> 
<DataArray  type="Float64"  Name="f_1726"  format="ascii">0.0000000000000000e+00  0.0000000000000000e+00  0.0000000000000000e+00  0.0000000000000000e+00  0.0000000000000000e+00  0.0000000000000000e+00  0.0000000000000000e+00  0.0000000000000000e+00  0.0000000000000000e+00  0.0000000000000000e+00  0.0000000000000000e+00  0.0000000000000000e+00  0.0000000000000000e+00  0.0000000000000000e+00  0.0000000000000000e+00  0.0000000000000000e+00  0.0000000000000000e+00  0.0000000000000000e+00  0.0000000000000000e+00  0.0000000000000000e+00  0.0000000000000000e+00  0.0000000000000000e+00  0.0000000000000000e+00  0.0000000000000000e+00  0.0000000000000000e+00  0.0000000000000000e+00  0.0000000000000000e+00  0.0000000000000000e+00  0.0000000000000000e+00  0.0000000000000000e+00  0.0000000000000000e+00  0.0000000000000000e+00  0.0000000000000000e+00  0.0000000000000000e+00  0.0000000000000000e+00  0.0000000000000000e+00  0.0000000000000000e+00  0.0000000000000000e+00  0.0000000000000000e+00  0.0000000000000000e+00  0.0000000000000000e+00  0.0000000000000000e+00  -2.4172573991293974e-11  -2.8169732041962965e-11  1.8511132194626864e-10  -4.4606580087138642e-11  -9.3752418890741036e-10  5.0511064943259786e-10  4.6128867603189689e-09  6.3465310889526046e-10  -1.9147255352037406e-08  -3.8205792155217727e-08  -3.3676641936282757e-08  -1.1607376467724958e-08  3.1413756146709117e-09  3.1825417931284934e-09  -3.0208176575198137e-10  -6.0999536111644296e-10  1.0219766526243437e-10  9.3886643376477367e-11  -3.6508854655320046e-11  -6.6700530843764141e-12  7.9487064456397261e-12  -1.5592939209654199e-12  -6.7980489921059978e-13  5.0780455202596597e-13  -1.1148150448992175e-13  -2.5327651521919943e-14  2.7976190826948728e-14  -1.0035442371853161e-14  1.1778564655071388e-15  7.5404052441453911e-16  -5.6200230381885182e-16  2.1061237416196866e-16  -4.6576098468337735e-17  3.8562602465737578e-19  5.4610054528760704e-18  -3.2850033104095158e-18  1.3365669891407725e-18  -4.4305904867765118e-19  1.4044682262003967e-19  0.0000000000000000e+00  0.0000000000000000e+00  -2.8169732041962945e-11  2.0258543298812759e-10  -1.8021969541799567e-10  -8.8747516299048225e-10  1.8636836591863633e-09  3.4831859394374898e-09  -1.0035069230051084e-08  -1.9602420665580571e-08  2.9228608553141036e-08  1.2527345733285497e-07  1.6354337474673403e-07  9.5782748709973319e-08  7.7470860657662014e-09  -1.8567802611220640e-08  -4.2205022745137352e-09  3.4472575736287566e-09  5.8321934108760502e-10  -6.9054701605330832e-10  3.1526201818765443e-11  1.0825368214301841e-10  -3.6482003038954177e-11  -5.2760739043480333e-12  7.6098359834897116e-12  -2.2011902329448710e-12  -2.0506152085288480e-13  4.1317388921669539e-13  -1.6477329097296028e-13  2.2918005459805048e-14  1.0907016146048351e-14  -8.7853274385551271e-15  3.3096610691438442e-15  -7.0663044931736328e-16  -1.3195143814832184e-17  9.3176951945587285e-17  -5.2860034433124921e-17  2.0665275995709139e-17  -6.5347427248879373e-18  1.7751309579143240e-18  -4.4305904867765157e-19  0.0000000000000000e+00  0.0000000000000000e+00  1.8511132194626849e-10  -1.8021969541799565e-10  -8.1137478662372533e-10  2.4029328668395123e-09  1.3257001325503588e-09  -1.4255507532620644e-08  8.8455521998116034e-10  7.1212652001947566e-08  2.7044308612119274e-08  -2.8967478468365349e-07  -6.1647096779220776e-07  -5.4646099971970162e-07  -1.7733920225507456e-07  5.8268603870637293e-08  4.7465178794631604e-08  -8.4343433046535708e-09  -8.4939616336357354e-09  2.5066948021342216e-09  1.0050828942192509e-09  -6.6151928299135404e-10  2.6947103117089438e-11  9.6202696415418369e-11  -3.9457232526848629e-11  1.1729702184599843e-12  5.3381063687041112e-12  -2.5882783092777452e-12  4.7679485193049223e-13  1.2110314296551267e-13  -1.2671976723470082e-13  5.1351459323542761e-14  -1.1744164292804798e-14  1.3501448238639649e-16  1.3537506552200548e-15  -8.0276752161373793e-16  3.1871711418327047e-16  -1.0176195244405261e-16  2.7575986378484778e-17  -6.5347427248879103e-18  1.3365669891407686e-18  0.0000000000000000e+00  0.0000000000000000e+00  -4.4606580087138409e-11  -8.8747516299048143e-10  2.4029328668395115e-09  4.5096470859133789e-10  -1.4601209894421483e-08  1.6626588225768041e-08  6.3729593808247184e-08  -1.1622878286181947e-07  -3.2112109151742823e-07  3.4913522913602377e-07  1.8551485072406939e-06  2.5004494508989131e-06  1.4324485748630853e-06  6.6090001963692368e-08  -2.8446967236933456e-07  -4.0228854956396609e-08  5.3714752114112426e-08  1.6165743601217460e-09  -9.5582256766614508e-09  1.9905179404603059e-09  9.8009423874685109e-10  -6.4011673287760767e-10  8.5887349082556194e-11  6.1607670819735360e-11  -3.9317147516251395e-11  9.2413708705600345e-12  1.0399621726337061e-12  -1.7869316869193656e-12  7.9514249488487646e-13  -1.9654201990381580e-13  8.2995932976499666e-15  1.9456756582979285e-14  -1.2244870822543449e-14  4.9597208747886633e-15  -1.5974722521625329e-15  4.3449021708663925e-16  -1.0176195244405312e-16  2.0665275995709176e-17  -3.2850033104095293e-18  0.0000000000000000e+00  0.0000000000000000e+00  -9.3752418890741077e-10  1.8636836591863621e-09  1.3257001325503550e-09  -1.4601209894421474e-08  2.1716128203553729e-08  4.8040671854670336e-08  -1.8350656186304986e-07  -1.0201213133310497e-07  9.8998084362348180e-07  6.8161477753019973e-07  -4.0319402972372982e-06  -9.3189722921846506e-06  -8.3057785482025635e-06  -2.4810433297751901e-06  1.0094203389457564e-06  6.3242152622443580e-07  -1.8269988124610802e-07  -9.7387999861976152e-08  4.7803561813409913e-08  5.1463814410689452e-09  -9.2165814883944208e-09  2.2673987242244237e-09  5.6387178387869322e-10  -5.6936159741581578e-10  1.6838815997218788e-10  2.2099237907466792e-12  -2.4399422430247207e-11  1.2197852555595235e-11  -3.2702114830809234e-12  2.3161759676368666e-13  2.7573811910438991e-13  -1.8644640105118669e-13  7.7217778175854798e-14  -2.5094771148597927e-14  6.8404428836434565e-15  -1.5974722521625303e-15  3.1871711418327126e-16  -5.2860034433124834e-17  5.4610054528760642e-18  0.0000000000000000e+00  0.0000000000000000e+00  5.0511064943259983e-10  3.4831859394374886e-09  -1.4255507532620634e-08  1.6626588225768048e-08  4.8040671854670270e-08  -1.9822622551722284e-07  5.3680666966261175e-08  1.0448979331189045e-06  -1.1225044791066358e-06  -5.1043517434197241e-06  3.7128993418931963e-06  2.7303569765511192e-05  3.8234650561088168e-05  2.1299844255529138e-05  1.0404783657213676e-07  -4.2755701461442066e-06  -2.0154388102528728e-07  7.8276386265483147e-07  -8.7699787013605460e-08  -1.1035973048035149e-07  4.5751136505748908e-08  1.8943001860181033e-09  -7.6800039671663522e-09  2.9084185220769370e-09  -1.9261192554289137e-10  -3.1703488556583991e-10  1.8468304775562068e-10  -5.4043768283805551e-11  5.3045040546548282e-12  3.8273827625329569e-12  -2.8299185443716673e-12  1.2021790536856194e-12  -3.9460157518676667e-13  1.0780643064361069e-13  -2.5094771148597914e-14  4.9597208747886546e-15  -8.0276752161373990e-16  9.3176951945587248e-17  3.8562602465733596e-19  0.0000000000000000e+00  0.0000000000000000e+00  4.6128867603189698e-09  -1.0035069230051094e-08  8.8455521998117657e-10  6.3729593808247131e-08  -1.8350656186304978e-07  5.3680666966261512e-08  9.9408897464924479e-07  -1.9841028504644283e-06  -3.1509781587048849e-06  1.3005577135086470e-05  1.4459392653964132e-05  -5.5052429017370356e-05  -1.4131477080331483e-04  -1.2669046787111264e-04  -3.3941439876505120e-05  1.7274783635282899e-05  7.8816511119142692e-06  -3.4789335731130958e-06  -8.5821667441792195e-07  7.6797940740237246e-07  -8.1643835459174930e-08  -9.1797265031606869e-08  4.7538436105699440e-08  -6.5836502449092408e-09  -3.7885342360062982e-09  2.7460461480756322e-09  -8.8625203856597901e-10  1.1080803534535010e-10  5.1543647807253478e-11  -4.2776756648895753e-11  1.8715065911972628e-11  -6.2122709770857871e-12  1.7014664451041641e-12  -3.9460157518676733e-13  7.7217778175854912e-14  -1.2244870822543465e-14  1.3537506552200625e-15  -1.3195143814833185e-17  -4.6576098468337544e-17  0.0000000000000000e+00  0.0000000000000000e+00  6.3465310889525694e-10  -1.9602420665580564e-08  7.1212652001947619e-08  -1.1622878286181957e-07  -1.0201213133310488e-07  1.0448979331189037e-06  -1.9841028504644292e-06  -2.1405792633497036e-06  1.5244022176733877e-05  -6.1496138246268202e-06  -7.8524443047018786e-05  2.9965512420946402e-05  4.0070667332841898e-04  5.8806035335978149e-04  3.1603014548269389e-04  -1.4095186022251219e-05  -6.2728095099506733e-05  3.6996405920402679e-06  1.0331953623051717e-05  -2.8377784954347212e-06  -8.4097541257050616e-07  7.2549087317367385e-07  -1.5643325529834547e-07  -3.8210179847131610e-08  3.9777247137711565e-08  -1.4397209179593431e-08  2.1941689288596328e-09  6.6226238635447767e-10  -6.4313314456175214e-10  2.9130008465973800e-10  -9.7935349070665080e-11  2.6898080239982326e-11  -6.2122709770857613e-12  1.2021790536856154e-12  -1.8644640105118593e-13  1.9456756582979159e-14  1.3501448238641035e-16  -7.0663044931736190e-16  2.1061237416196811e-16  0.0000000000000000e+00  0.0000000000000000e+00  -1.9147255352037406e-08  2.9228608553141053e-08  2.7044308612119248e-08  -3.2112109151742833e-07  9.8998084362348223e-07  -1.1225044791066354e-06  -3.1509781587048836e-06  1.5244022176733887e-05  -1.3617987375911765e-05  -6.7001929007231512e-05  1.5454508432557814e-04  2.8052825000408335e-04  -7.2907663840022586e-04  -2.1524778346324299e-03  -1.9420560525768933e-03  -4.4744266712058419e-04  2.9176383644173299e-04  8.6048714513965355e-05  -5.9791881815665969e-05  -1.7580332982894670e-06  9.9795244764721372e-06  -3.1732351106602220e-06  -2.2379249610985252e-07  5.5347295313476433e-07  -2.3101843132859803e-07  4.1938821715703587e-08  7.8428590026782744e-09  -9.5993703584437259e-09  4.5326069767130414e-09  -1.5464148932958969e-09  4.2605217334504125e-10  -9.7935349070665507e-11  1.8715065911972657e-11  -2.8299185443716790e-12  2.7573811910439264e-13  8.2995932976493860e-15  -1.1744164292804735e-14  3.3096610691438248e-15  -5.6200230381884965e-16  0.0000000000000000e+00  0.0000000000000000e+00  -3.8205792155217714e-08  1.2527345733285494e-07  -2.8967478468365354e-07  3.4913522913602398e-07  6.8161477753019963e-07  -5.1043517434197266e-06  1.3005577135086471e-05  -6.1496138246268388e-06  -6.7001929007231539e-05  1.8589300125509487e-04  8.3757413498792381e-05  -1.1518628149530773e-03  7.2275439306054428e-06  5.8520784209366728e-03  9.1165217738022695e-03  4.6696702134048015e-03  -4.9280534961468987e-04  -8.8207991759996262e-04  1.6312603498443902e-04  1.1221046639136373e-04  -5.7346310477553358e-05  2.9880863695266307e-06  7.1959443434403288e-06  -3.6430372596794028e-06  7.8115539806962592e-07  7.8188892122079780e-08  -1.4184046333588723e-07  7.0486549841477185e-08  -2.4464572196190268e-08  6.7640687908786064e-09  -1.5464148932958948e-09  2.9130008465973857e-10  -4.2776756648895688e-11  3.8273827625329537e-12  2.3161759676368751e-13  -1.9654201990381562e-13  5.1351459323542900e-14  -8.7853274385551176e-15  7.5404052441453921e-16  0.0000000000000000e+00  0.0000000000000000e+00  -3.3676641936282724e-08  1.6354337474673395e-07  -6.1647096779220755e-07  1.8551485072406926e-06  -4.0319402972372982e-06  3.7128993418931972e-06  1.4459392653964136e-05  -7.8524443047018773e-05  1.5454508432557822e-04  8.3757413498792408e-05  -1.1565528202188969e-03  1.4633447814981838e-03  5.1150430939235344e-03  -9.1383574185210804e-03  -3.2983569940374165e-02  -2.9968874383186173e-02  -5.4975030461249016e-03  4.8390158532244654e-03  6.4904156375510526e-04  -9.0917887242764690e-04  1.5406629328299895e-04  8.1850414016165519e-05  -5.5937621446225605e-05  1.4245929616318961e-05  4.2597328371303577e-07  -2.0653472796031769e-06  1.0950731290005922e-06  -3.8791887316789674e-07  1.0768803665414610e-07  -2.4464572196190268e-08  4.5326069767130381e-09  -6.4313314456175400e-10  5.1543647807253601e-11  5.3045040546547846e-12  -3.2702114830809121e-12  7.9514249488487262e-13  -1.2671976723470055e-13  1.0907016146048231e-14  1.1778564655071542e-15  0.0000000000000000e+00  0.0000000000000000e+00  -1.1607376467724943e-08  9.5782748709973240e-08  -5.4646099971970130e-07  2.5004494508989127e-06  -9.3189722921846472e-06  2.7303569765511196e-05  -5.5052429017370343e-05  2.9965512420946375e-05  2.8052825000408319e-04  -1.1518628149530777e-03  1.4633447814981835e-03  3.8908320001904326e-03  -1.5535963151441404e-02  -7.6445651226613185e-03  8.4690702999148437e-02  1.4294837643204733e-01  6.8430125002113013e-02  -1.2548188859980870e-02  -1.1391603319966959e-02  3.9896266424788449e-03  6.4325204734170475e-04  -8.2091614138240718e-04  2.5462717837944387e-04  -7.8317254833328527e-06  -2.9404215016953364e-05  1.6985283727058514e-05  -6.1682135078355629e-06  1.7203840786185451e-06  -3.8791887316789721e-07  7.0486549841477291e-08  -9.5993703584437441e-09  6.6226238635448284e-10  1.1080803534534935e-10  -5.4043768283805441e-11  1.2197852555595214e-11  -1.7869316869193609e-12  1.2110314296551247e-13  2.2918005459805055e-14  -1.0035442371853155e-14  0.0000000000000000e+00  0.0000000000000000e+00  3.1413756146709229e-09  7.7470860657661286e-09  -1.7733920225507419e-07  1.4324485748630834e-06  -8.3057785482025602e-06  3.8234650561088155e-05  -1.4131477080331481e-04  4.0070667332841881e-04  -7.2907663840022542e-04  7.2275439306046076e-06  5.1150430939235396e-03  -1.5535963151441411e-02  4.6455406167433119e-03  8.7790104634773117e-02  -1.0170259699527640e-01  -5.0976785997878993e-01  -4.6684306465386183e-01  -5.7141321905662200e-02  7.7698289708390725e-02  -2.8175095180312014e-03  -1.1024768142534039e-02  4.4434079504063820e-03  -3.9050297046205662e-04  -4.0323594068756029e-04  2.6272181768171107e-04  -9.8424442445439706e-05  2.7604442009025737e-05  -6.1682135078355367e-06  1.0950731290005884e-06  -1.4184046333588651e-07  7.8428590026781817e-09  2.1941689288596456e-09  -8.8625203856597653e-10  1.8468304775561991e-10  -2.4399422430247049e-11  1.0399621726336806e-12  4.7679485193049637e-13  -1.6477329097296023e-13  2.7976190826948680e-14  0.0000000000000000e+00  0.0000000000000000e+00  3.1825417931284909e-09  -1.8567802611220650e-08  5.8268603870637413e-08  6.6090001963691574e-08  -2.4810433297751859e-06  2.1299844255529121e-05  -1.2669046787111259e-04  5.8806035335978160e-04  -2.1524778346324299e-03  5.8520784209366737e-03  -9.1383574185210838e-03  -7.6445651226613384e-03  8.7790104634773172e-02  -1.7249457505232313e-01  -2.5285916655645807e-01  1.2025062910680402e+00  2.2814868643956303e+00  9.8461360596169489e-01  -2.8415825783101450e-01  -1.1812191235793608e-01  7.4669762795430389e-02  -1.1148791487063285e-02  -5.1534793246302453e-03  4.0437140530462136e-03  -1.5776813609106296e-03  4.4545778156002467e-04  -9.8424442445440140e-05  1.6985283727058538e-05  -2.0653472796031866e-06  7.8188892122081739e-08  4.1938821715703137e-08  -1.4397209179593390e-08  2.7460461480756152e-09  -3.1703488556583795e-10  2.2099237907464675e-12  9.2413708705600313e-12  -2.5882783092777480e-12  4.1317388921669393e-13  -2.5327651521919735e-14  0.0000000000000000e+00  0.0000000000000000e+00  -3.0208176575198360e-10  -4.2205022745137220e-09  4.7465178794631571e-08  -2.8446967236933462e-07  1.0094203389457588e-06  1.0404783657211940e-07  -3.3941439876505039e-05  3.1603014548269351e-04  -1.9420560525768927e-03  9.1165217738022712e-03  -3.2983569940374172e-02  8.4690702999148437e-02  -1.0170259699527645e-01  -2.5285916655645829e-01  1.3712552388315411e+00  -7.7086943242567252e-01  -7.9831865976127929e+00  -7.3779092778426332e+00  -2.8440187044353576e-01  1.1561953903489139e+00  -2.7036489029926219e-01  -5.5820887371810693e-02  6.1660732115447349e-02  -2.5444311643308456e-02  7.2443199872700295e-03  -1.5776813609106272e-03  2.6272181768171140e-04  -2.9404215016953276e-05  4.2597328371302560e-07  7.8115539806962666e-07  -2.3101843132859776e-07  3.9777247137711624e-08  -3.7885342360062874e-09  -1.9261192554289219e-10  1.6838815997218783e-10  -3.9317147516251318e-11  5.3381063687041128e-12  -2.0506152085288311e-13  -1.1148150448992184e-13  0.0000000000000000e+00  0.0000000000000000e+00  -6.0999536111644265e-10  3.4472575736287599e-09  -8.4343433046536138e-09  -4.0228854956396325e-08  6.3242152622443453e-07  -4.2755701461442058e-06  1.7274783635282923e-05  -1.4095186022251466e-05  -4.4744266712058234e-04  4.6696702134047937e-03  -2.9968874383186156e-02  1.4294837643204727e-01  -5.0976785997878982e-01  1.2025062910680404e+00  -7.7086943242567085e-01  -6.2335540045713751e+00  1.6264269793117620e+01  3.7569527077494612e+01  1.3493362267063324e+01  -6.0219395769336899e+00  -2.9777412857094948e-01  9.2180300790388436e-01  -4.1393748856596496e-01  1.1913059283906785e-01  -2.5444311643308452e-02  4.0437140530462084e-03  -4.0323594068756121e-04  -7.8317254833326901e-06  1.4245929616318909e-05  -3.6430372596793880e-06  5.5347295313476052e-07  -3.8210179847131140e-08  -6.5836502449093078e-09  2.9084185220769473e-09  -5.6936159741581630e-10  6.1607670819735309e-11  1.1729702184599958e-12  -2.2011902329448686e-12  5.0780455202596587e-13  0.0000000000000000e+00  0.0000000000000000e+00  1.0219766526243470e-10  5.8321934108760130e-10  -8.4939616336357189e-09  5.3714752114112386e-08  -1.8269988124610829e-07  -2.0154388102528482e-07  7.8816511119142557e-06  -6.2728095099506679e-05  2.9176383644173299e-04  -4.9280534961469171e-04  -5.4975030461248860e-03  6.8430125002112943e-02  -4.6684306465386155e-01  2.2814868643956308e+00  -7.9831865976127938e+00  1.6264269793117617e+01  6.7208985694029542e+00  -1.2793793619482619e+02  -1.1955085210654148e+02  1.0437568685546418e+01  1.3093000433321679e+01  -6.8246417282675278e+00  1.9933394877204536e+00  -4.1393748856596546e-01  6.1660732115447488e-02  -5.1534793246302661e-03  -3.9050297046205309e-04  2.5462717837944278e-04  -5.5937621446225476e-05  7.1959443434403094e-06  -2.2379249610985101e-07  -1.5643325529834576e-07  4.7538436105699348e-08  -7.6800039671663456e-09  5.6387178387869043e-10  8.5887349082556543e-11  -3.9457232526848784e-11  7.6098359834897084e-12  -6.7980489921060059e-13  0.0000000000000000e+00  0.0000000000000000e+00  9.3886643376477251e-11  -6.9054701605330801e-10  2.5066948021342245e-09  1.6165743601217069e-09  -9.7387999861975966e-08  7.8276386265483115e-07  -3.4789335731130979e-06  3.6996405920402853e-06  8.6048714513965193e-05  -8.8207991759996207e-04  4.8390158532244671e-03  -1.2548188859980897e-02  -5.7141321905661999e-02  9.8461360596169367e-01  -7.3779092778426332e+00  3.7569527077494627e+01  -1.2793793619482621e+02  1.8174856757913972e+02  6.6342240283330705e+02  1.5144875215118051e+02  -1.1517117469660367e+02  3.4393118136863933e+01  -6.8246417282674976e+00  9.2180300790388037e-01  -5.5820887371810179e-02  -1.1148791487063305e-02  4.4434079504063881e-03  -8.2091614138240414e-04  8.1850414016165017e-05  2.9880863695267201e-06  -3.1732351106602279e-06  7.2549087317367628e-07  -9.1797265031606869e-08  1.8943001860181219e-09  2.2673987242244204e-09  -6.4011673287760560e-10  9.6202696415418343e-11  -5.2760739043479945e-12  -1.5592939209654199e-12  0.0000000000000000e+00  0.0000000000000000e+00  -3.6508854655320052e-11  3.1526201818765566e-11  1.0050828942192509e-09  -9.5582256766614541e-09  4.7803561813409953e-08  -8.7699787013605790e-08  -8.5821667441791962e-07  1.0331953623051712e-05  -5.9791881815665983e-05  1.6312603498443918e-04  6.4904156375510396e-04  -1.1391603319966961e-02  7.7698289708390753e-02  -2.8415825783101495e-01  -2.8440187044353188e-01  1.3493362267063310e+01  -1.1955085210654153e+02  6.6342240283330739e+02  -2.1578619974323938e+03  -2.0463181052306602e+03  6.3568491809747240e+02  -1.1517117469660420e+02  1.3093000433321714e+01  -2.9777412857095997e-01  -2.7036489029925981e-01  7.4669762795429875e-02  -1.1024768142533989e-02  6.4325204734169282e-04  1.5406629328300036e-04  -5.7346310477553507e-05  9.9795244764721406e-06  -8.4097541257050786e-07  -8.1643835459174930e-08  4.5751136505748934e-08  -9.216581488394424