<?xml version="1.0"?>
<VTKFile type="UnstructuredGrid"  version="0.1"  >
<UnstructuredGrid>
<Piece  NumberOfPoints="1681" NumberOfCells="3200">
<Points>
<DataArray  type="Float64"  NumberOfComponents="3"  format="ascii">-2 -2 0  -1.9 -2 0  -1.8 -2 0  -1.7 -2 0  -1.6 -2 0  -1.5 -2 0  -1.4 -2 0  -1.3 -2 0  -1.2 -2 0  -1.1 -2 0  -1 -2 0  -0.8999999999999999 -2 0  -0.8 -2 0  -0.7 -2 0  -0.6000000000000001 -2 0  -0.5 -2 0  -0.3999999999999999 -2 0  -0.3 -2 0  -0.2 -2 0  -0.1000000000000001 -2 0  0 -2 0  0.1000000000000001 -2 0  0.2000000000000002 -2 0  0.2999999999999998 -2 0  0.3999999999999999 -2 0  0.5 -2 0  0.6000000000000001 -2 0  0.7000000000000002 -2 0  0.7999999999999998 -2 0  0.8999999999999999 -2 0  1 -2 0  1.1 -2 0  1.2 -2 0  1.3 -2 0  1.4 -2 0  1.5 -2 0  1.6 -2 0  1.7 -2 0  1.8 -2 0  1.9 -2 0  2 -2 0  -2 -1.9 0  -1.9 -1.9 0  -1.8 -1.9 0  -1.7 -1.9 0  -1.6 -1.9 0  -1.5 -1.9 0  -1.4 -1.9 0  -1.3 -1.9 0  -1.2 -1.9 0  -1.1 -1.9 0  -1 -1.9 0  -0.8999999999999999 -1.9 0  -0.8 -1.9 0  -0.7 -1.9 0  -0.6000000000000001 -1.9 0  -0.5 -1.9 0  -0.3999999999999999 -1.9 0  -0.3 -1.9 0  -0.2 -1.9 0  -0.1000000000000001 -1.9 0  0 -1.9 0  0.1000000000000001 -1.9 0  0.2000000000000002 -1.9 0  0.2999999999999998 -1.9 0  0.3999999999999999 -1.9 0  0.5 -1.9 0  0.6000000000000001 -1.9 0  0.7000000000000002 -1.9 0  0.7999999999999998 -1.9 0  0.8999999999999999 -1.9 0  1 -1.9 0  1.1 -1.9 0  1.2 -1.9 0  1.3 -1.9 0  1.4 -1.9 0  1.5 -1.9 0  1.6 -1.9 0  1.7 -1.9 0  1.8 -1.9 0  1.9 -1.9 0  2 -1.9 0  -2 -1.8 0  -1.9 -1.8 0  -1.8 -1.8 0  -1.7 -1.8 0  -1.6 -1.8 0  -1.5 -1.8 0  -1.4 -1.8 0  -1.3 -1.8 0  -1.2 -1.8 0  -1.1 -1.8 0  -1 -1.8 0  -0.8999999999999999 -1.8 0  -0.8 -1.8 0  -0.7 -1.8 0  -0.6000000000000001 -1.8 0  -0.5 -1.8 0  -0.3999999999999999 -1.8 0  -0.3 -1.8 0  -0.2 -1.8 0  -0.1000000000000001 -1.8 0  0 -1.8 0  0.1000000000000001 -1.8 0  0.2000000000000002 -1.8 0  0.2999999999999998 -1.8 0  0.3999999999999999 -1.8 0  0.5 -1.8 0  0.6000000000000001 -1.8 0  0.7000000000000002 -1.8 0  0.7999999999999998 -1.8 0  0.8999999999999999 -1.8 0  1 -1.8 0  1.1 -1.8 0  1.2 -1.8 0  1.3 -1.8 0  1.4 -1.8 0  1.5 -1.8 0  1.6 -1.8 0  1.7 -1.8 0  1.8 -1.8 0  1.9 -1.8 0  2 -1.8 0  -2 -1.7 0  -1.9 -1.7 0  -1.8 -1.7 0  -1.7 -1.7 0  -1.6 -1.7 0  -1.5 -1.7 0  -1.4 -1.7 0  -1.3 -1.7 0  -1.2 -1.7 0  -1.1 -1.7 0  -1 -1.7 0  -0.8999999999999999 -1.7 0  -0.8 -1.7 0  -0.7 -1.7 0  -0.6000000000000001 -1.7 0  -0.5 -1.7 0  -0.3999999999999999 -1.7 0  -0.3 -1.7 0  -0.2 -1.7 0  -0.1000000000000001 -1.7 0  0 -1.7 0  0.1000000000000001 -1.7 0  0.2000000000000002 -1.7 0  0.2999999999999998 -1.7 0  0.3999999999999999 -1.7 0  0.5 -1.7 0  0.6000000000000001 -1.7 0  0.7000000000000002 -1.7 0  0.7999999999999998 -1.7 0  0.8999999999999999 -1.7 0  1 -1.7 0  1.1 -1.7 0  1.2 -1.7 0  1.3 -1.7 0  1.4 -1.7 0  1.5 -1.7 0  1.6 -1.7 0  1.7 -1.7 0  1.8 -1.7 0  1.9 -1.7 0  2 -1.7 0  -2 -1.6 0  -1.9 -1.6 0  -1.8 -1.6 0  -1.7 -1.6 0  -1.6 -1.6 0  -1.5 -1.6 0  -1.4 -1.6 0  -1.3 -1.6 0  -1.2 -1.6 0  -1.1 -1.6 0  -1 -1.6 0  -0.8999999999999999 -1.6 0  -0.8 -1.6 0  -0.7 -1.6 0  -0.6000000000000001 -1.6 0  -0.5 -1.6 0  -0.3999999999999999 -1.6 0  -0.3 -1.6 0  -0.2 -1.6 0  -0.1000000000000001 -1.6 0  0 -1.6 0  0.1000000000000001 -1.6 0  0.2000000000000002 -1.6 0  0.2999999999999998 -1.6 0  0.3999999999999999 -1.6 0  0.5 -1.6 0  0.6000000000000001 -1.6 0  0.7000000000000002 -1.6 0  0.7999999999999998 -1.6 0  0.8999999999999999 -1.6 0  1 -1.6 0  1.1 -1.6 0  1.2 -1.6 0  1.3 -1.6 0  1.4 -1.6 0  1.5 -1.6 0  1.6 -1.6 0  1.7 -1.6 0  1.8 -1.6 0  1.9 -1.6 0  2 -1.6 0  -2 -1.5 0  -1.9 -1.5 0  -1.8 -1.5 0  -1.7 -1.5 0  -1.6 -1.5 0  -1.5 -1.5 0  -1.4 -1.5 0  -1.3 -1.5 0  -1.2 -1.5 0  -1.1 -1.5 0  -1 -1.5 0  -0.8999999999999999 -1.5 0  -0.8 -1.5 0  -0.7 -1.5 0  -0.6000000000000001 -1.5 0  -0.5 -1.5 0  -0.3999999999999999 -1.5 0  -0.3 -1.5 0  -0.2 -1.5 0  -0.1000000000000001 -1.5 0  0 -1.5 0  0.1000000000000001 -1.5 0  0.2000000000000002 -1.5 0  0.2999999999999998 -1.5 0  0.3999999999999999 -1.5 0  0.5 -1.5 0  0.6000000000000001 -1.5 0  0.7000000000000002 -1.5 0  0.7999999999999998 -1.5 0  0.8999999999999999 -1.5 0  1 -1.5 0  1.1 -1.5 0  1.2 -1.5 0  1.3 -1.5 0  1.4 -1.5 0  1.5 -1.5 0  1.6 -1.5 0  1.7 -1.5 0  1.8 -1.5 0  1.9 -1.5 0  2 -1.5 0  -2 -1.4 0  -1.9 -1.4 0  -1.8 -1.4 0  -1.7 -1.4 0  -1.6 -1.4 0  -1.5 -1.4 0  -1.4 -1.4 0  -1.3 -1.4 0  -1.2 -1.4 0  -1.1 -1.4 0  -1 -1.4 0  -0.8999999999999999 -1.4 0  -0.8 -1.4 0  -0.7 -1.4 0  -0.6000000000000001 -1.4 0  -0.5 -1.4 0  -0.3999999999999999 -1.4 0  -0.3 -1.4 0  -0.2 -1.4 0  -0.1000000000000001 -1.4 0  0 -1.4 0  0.1000000000000001 -1.4 0  0.2000000000000002 -1.4 0  0.2999999999999998 -1.4 0  0.3999999999999999 -1.4 0  0.5 -1.4 0  0.6000000000000001 -1.4 0  0.7000000000000002 -1.4 0  0.7999999999999998 -1.4 0  0.8999999999999999 -1.4 0  1 -1.4 0  1.1 -1.4 0  1.2 -1.4 0  1.3 -1.4 0  1.4 -1.4 0  1.5 -1.4 0  1.6 -1.4 0  1.7 -1.4 0  1.8 -1.4 0  1.9 -1.4 0  2 -1.4 0  -2 -1.3 0  -1.9 -1.3 0  -1.8 -1.3 0  -1.7 -1.3 0  -1.6 -1.3 0  -1.5 -1.3 0  -1.4 -1.3 0  -1.3 -1.3 0  -1.2 -1.3 0  -1.1 -1.3 0  -1 -1.3 0  -0.8999999999999999 -1.3 0  -0.8 -1.3 0  -0.7 -1.3 0  -0.6000000000000001 -1.3 0  -0.5 -1.3 0  -0.3999999999999999 -1.3 0  -0.3 -1.3 0  -0.2 -1.3 0  -0.1000000000000001 -1.3 0  0 -1.3 0  0.1000000000000001 -1.3 0  0.2000000000000002 -1.3 0  0.2999999999999998 -1.3 0  0.3999999999999999 -1.3 0  0.5 -1.3 0  0.6000000000000001 -1.3 0  0.7000000000000002 -1.3 0  0.7999999999999998 -1.3 0  0.8999999999999999 -1.3 0  1 -1.3 0  1.1 -1.3 0  1.2 -1.3 0  1.3 -1.3 0  1.4 -1.3 0  1.5 -1.3 0  1.6 -1.3 0  1.7 -1.3 0  1.8 -1.3 0  1.9 -1.3 0  2 -1.3 0  -2 -1.2 0  -1.9 -1.2 0  -1.8 -1.2 0  -1.7 -1.2 0  -1.6 -1.2 0  -1.5 -1.2 0  -1.4 -1.2 0  -1.3 -1.2 0  -1.2 -1.2 0  -1.1 -1.2 0  -1 -1.2 0  -0.8999999999999999 -1.2 0  -0.8 -1.2 0  -0.7 -1.2 0  -0.6000000000000001 -1.2 0  -0.5 -1.2 0  -0.3999999999999999 -1.2 0  -0.3 -1.2 0  -0.2 -1.2 0  -0.1000000000000001 -1.2 0  0 -1.2 0  0.1000000000000001 -1.2 0  0.2000000000000002 -1.2 0  0.2999999999999998 -1.2 0  0.3999999999999999 -1.2 0  0.5 -1.2 0  0.6000000000000001 -1.2 0  0.7000000000000002 -1.2 0  0.7999999999999998 -1.2 0  0.8999999999999999 -1.2 0  1 -1.2 0  1.1 -1.2 0  1.2 -1.2 0  1.3 -1.2 0  1.4 -1.2 0  1.5 -1.2 0  1.6 -1.2 0  1.7 -1.2 0  1.8 -1.2 0  1.9 -1.2 0  2 -1.2 0  -2 -1.1 0  -1.9 -1.1 0  -1.8 -1.1 0  -1.7 -1.1 0  -1.6 -1.1 0  -1.5 -1.1 0  -1.4 -1.1 0  -1.3 -1.1 0  -1.2 -1.1 0  -1.1 -1.1 0  -1 -1.1 0  -0.8999999999999999 -1.1 0  -0.8 -1.1 0  -0.7 -1.1 0  -0.6000000000000001 -1.1 0  -0.5 -1.1 0  -0.3999999999999999 -1.1 0  -0.3 -1.1 0  -0.2 -1.1 0  -0.1000000000000001 -1.1 0  0 -1.1 0  0.1000000000000001 -1.1 0  0.2000000000000002 -1.1 0  0.2999999999999998 -1.1 0  0.3999999999999999 -1.1 0  0.5 -1.1 0  0.6000000000000001 -1.1 0  0.7000000000000002 -1.1 0  0.7999999999999998 -1.1 0  0.8999999999999999 -1.1 0  1 -1.1 0  1.1 -1.1 0  1.2 -1.1 0  1.3 -1.1 0  1.4 -1.1 0  1.5 -1.1 0  1.6 -1.1 0  1.7 -1.1 0  1.8 -1.1 0  1.9 -1.1 0  2 -1.1 0  -2 -1 0  -1.9 -1 0  -1.8 -1 0  -1.7 -1 0  -1.6 -1 0  -1.5 -1 0  -1.4 -1 0  -1.3 -1 0  -1.2 -1 0  -1.1 -1 0  -1 -1 0  -0.8999999999999999 -1 0  -0.8 -1 0  -0.7 -1 0  -0.6000000000000001 -1 0  -0.5 -1 0  -0.3999999999999999 -1 0  -0.3 -1 0  -0.2 -1 0  -0.1000000000000001 -1 0  0 -1 0  0.1000000000000001 -1 0  0.2000000000000002 -1 0  0.2999999999999998 -1 0  0.3999999999999999 -1 0  0.5 -1 0  0.6000000000000001 -1 0  0.7000000000000002 -1 0  0.7999999999999998 -1 0  0.8999999999999999 -1 0  1 -1 0  1.1 -1 0  1.2 -1 0  1.3 -1 0  1.4 -1 0  1.5 -1 0  1.6 -1 0  1.7 -1 0  1.8 -1 0  1.9 -1 0  2 -1 0  -2 -0.8999999999999999 0  -1.9 -0.8999999999999999 0  -1.8 -0.8999999999999999 0  -1.7 -0.8999999999999999 0  -1.6 -0.8999999999999999 0  -1.5 -0.8999999999999999 0  -1.4 -0.8999999999999999 0  -1.3 -0.8999999999999999 0  -1.2 -0.8999999999999999 0  -1.1 -0.8999999999999999 0  -1 -0.8999999999999999 0  -0.8999999999999999 -0.8999999999999999 0  -0.8 -0.8999999999999999 0  -0.7 -0.8999999999999999 0  -0.6000000000000001 -0.8999999999999999 0  -0.5 -0.8999999999999999 0  -0.3999999999999999 -0.8999999999999999 0  -0.3 -0.8999999999999999 0  -0.2 -0.8999999999999999 0  -0.1000000000000001 -0.8999999999999999 0  0 -0.8999999999999999 0  0.1000000000000001 -0.8999999999999999 0  0.2000000000000002 -0.8999999999999999 0  0.2999999999999998 -0.8999999999999999 0  0.3999999999999999 -0.8999999999999999 0  0.5 -0.8999999999999999 0  0.6000000000000001 -0.8999999999999999 0  0.7000000000000002 -0.8999999999999999 0  0.7999999999999998 -0.8999999999999999 0  0.8999999999999999 -0.8999999999999999 0  1 -0.8999999999999999 0  1.1 -0.8999999999999999 0  1.2 -0.8999999999999999 0  1.3 -0.8999999999999999 0  1.4 -0.8999999999999999 0  1.5 -0.8999999999999999 0  1.6 -0.8999999999999999 0  1.7 -0.8999999999999999 0  1.8 -0.8999999999999999 0  1.9 -0.8999999999999999 0  2 -0.8999999999999999 0  -2 -0.8 0  -1.9 -0.8 0  -1.8 -0.8 0  -1.7 -0.8 0  -1.6 -0.8 0  -1.5 -0.8 0  -1.4 -0.8 0  -1.3 -0.8 0  -1.2 -0.8 0  -1.1 -0.8 0  -1 -0.8 0  -0.8999999999999999 -0.8 0  -0.8 -0.8 0  -0.7 -0.8 0  -0.6000000000000001 -0.8 0  -0.5 -0.8 0  -0.3999999999999999 -0.8 0  -0.3 -0.8 0  -0.2 -0.8 0  -0.1000000000000001 -0.8 0  0 -0.8 0  0.1000000000000001 -0.8 0  0.2000000000000002 -0.8 0  0.2999999999999998 -0.8 0  0.3999999999999999 -0.8 0  0.5 -0.8 0  0.6000000000000001 -0.8 0  0.7000000000000002 -0.8 0  0.7999999999999998 -0.8 0  0.8999999999999999 -0.8 0  1 -0.8 0  1.1 -0.8 0  1.2 -0.8 0  1.3 -0.8 0  1.4 -0.8 0  1.5 -0.8 0  1.6 -0.8 0  1.7 -0.8 0  1.8 -0.8 0  1.9 -0.8 0  2 -0.8 0  -2 -0.7 0  -1.9 -0.7 0  -1.8 -0.7 0  -1.7 -0.7 0  -1.6 -0.7 0  -1.5 -0.7 0  -1.4 -0.7 0  -1.3 -0.7 0  -1.2 -0.7 0  -1.1 -0.7 0  -1 -0.7 0  -0.8999999999999999 -0.7 0  -0.8 -0.7 0  -0.7 -0.7 0  -0.6000000000000001 -0.7 0  -0.5 -0.7 0  -0.3999999999999999 -0.7 0  -0.3 -0.7 0  -0.2 -0.7 0  -0.1000000000000001 -0.7 0  0 -0.7 0  0.1000000000000001 -0.7 0  0.2000000000000002 -0.7 0  0.2999999999999998 -0.7 0  0.3999999999999999 -0.7 0  0.5 -0.7 0  0.600000000000000
[...]
<PointData  Scalars="f_1726"> 
<DataArray  type="Float64"  Name="f_1726"  format="ascii">0.0000000000000000e+00  0.0000000000000000e+00  0.0000000000000000e+00  0.0000000000000000e+00  0.0000000000000000e+00  0.0000000000000000e+00  0.0000000000000000e+00  0.0000000000000000e+00  0.0000000000000000e+00  0.0000000000000000e+00  0.0000000000000000e+00  0.0000000000000000e+00  0.0000000000000000e+00  0.0000000000000000e+00  0.0000000000000000e+00  0.0000000000000000e+00  0.0000000000000000e+00  0.0000000000000000e+00  0.0000000000000000e+00  0.0000000000000000e+00  0.0000000000000000e+00  0.0000000000000000e+00  0.0000000000000000e+00  0.0000000000000000e+00  0.0000000000000000e+00  0.0000000000000000e+00  0.0000000000000000e+00  0.0000000000000000e+00  0.0000000000000000e+00  0.0000000000000000e+00  0.0000000000000000e+00  0.0000000000000000e+00  0.0000000000000000e+00  0.0000000000000000e+00  0.0000000000000000e+00  0.0000000000000000e+00  0.0000000000000000e+00  0.0000000000000000e+00  0.0000000000000000e+00  0.0000000000000000e+00  0.0000000000000000e+00  0.0000000000000000e+00  -1.3221863955388869e-11  -1.5408221104328251e-11  1.0125180364562136e-10  -2.4398813863998335e-11  -5.1280501965097089e-10  2.7628436639065740e-10  2.5231471505069507e-09  3.4714122987894646e-10  -1.0473125678502796e-08  -2.0897724270741198e-08  -1.8420379158472821e-08  -6.3489784989598444e-09  1.7182630623000295e-09  1.7407800524776335e-09  -1.6523205230915206e-10  -3.3365398658019187e-10  5.5899865158958253e-11  5.1353919793522223e-11  -1.9969536946853947e-11  -3.6483716830739463e-12  4.3477668238153933e-12  -8.5289932701808900e-13  -3.7183826169304989e-13  2.7775787159582867e-13  -6.0977920118837659e-14  -1.3853665846795322e-14  1.5302358335406734e-14  -5.4891652755133205e-15  6.4426146555677228e-16  4.1244350867432809e-16  -3.0740284449575878e-16  1.1520031584116526e-16  -2.5476096908130355e-17  2.1092891627982348e-19  2.9870493387907012e-18  -1.7968242388617690e-18  7.3107261576891694e-19  -2.4234351161484722e-19  7.6821309237386183e-20  0.0000000000000000e+00  0.0000000000000000e+00  -1.5408221104328241e-11  1.1080975634937686e-10  -9.8576191999932103e-11  -4.8542930815199308e-10  1.0193937892802921e-09  1.9052257587112027e-09  -5.4889611751909943e-09  -1.0722091049548793e-08  1.5987403163359144e-08  6.8521813633615154e-08  8.9454613004195965e-08  5.2391047522393860e-08  4.2374849301998621e-09  -1.0156177830482309e-08  -2.3085215052864388e-09  1.8855737363393364e-09  3.1900809515731012e-10  -3.7771396229234582e-10  1.7244135921477589e-11  5.9212372603778149e-11  -1.9954849705904785e-11  -2.8858958672333275e-12  4.1624121673083592e-12  -1.2040024289680461e-12  -1.1216412170993799e-13  2.2599698960936403e-13  -9.0127350008767527e-14  1.2535642684454585e-14  5.9658968752860180e-15  -4.8053800244010574e-15  1.8103114881529502e-15  -3.8651124497434374e-16  -7.2174521610455970e-18  5.0965734259250461e-17  -2.8913271056845954e-17  1.1303449434645936e-17  -3.5743599056953460e-18  9.7095741798103296e-19  -2.4234351161484751e-19  0.0000000000000000e+00  0.0000000000000000e+00  1.0125180364562140e-10  -9.8576191999932167e-11  -4.4380408348053147e-10  1.3143511928323124e-09  7.2512868528335981e-10  -7.7974476892372278e-09  4.8383216383296510e-10  3.8951747422980903e-08  1.4792639350934476e-08  -1.5844570775843972e-07  -3.3719600037344441e-07  -2.9890209449030670e-07  -9.7000625875352514e-08  3.1871639053643427e-08  2.5962404205148194e-08  -4.6133994570598306e-09  -4.6460093659314998e-09  1.3711066791412409e-09  5.4975813895705187e-10  -3.6183643358494663e-10  1.4739470092606343e-11  5.2620749639833717e-11  -2.1582234507340080e-11  6.4158879636841156e-13  2.9198262548217080e-12  -1.4157310552148724e-12  2.6079625070649248e-13  6.6240743804805667e-14  -6.9312913198205325e-14  2.8088113799180101e-14  -6.4237984173769092e-15  7.3849939140249261e-17  7.4047170149462061e-16  -4.3909609967082086e-16  1.7433122039477742e-16  -5.5661539873023181e-17  1.5083455343369662e-17  -3.5743599056953291e-18  7.3107261576891453e-19  0.0000000000000000e+00  0.0000000000000000e+00  -2.4398813863998158e-11  -4.8542930815199349e-10  1.3143511928323134e-09  2.4666773293666112e-10  -7.9865392439236919e-09  9.0943764467346899e-09  3.4858679905926270e-08  -6.3574576511913503e-08  -1.7564614288815859e-07  1.9096925728028024e-07  1.0147252497236493e-06  1.3676906099871425e-06  7.8351772495356441e-07  3.6149771021077097e-08  -1.5559862631327655e-07  -2.2004294929704879e-08  2.9380782746016999e-08  8.8423046180343348e-10  -5.2281382858622516e-09  1.0887693391281292e-09  5.3608989646028036e-10  -3.5012971149551340e-10  4.6978482534278095e-11  3.3698034908499872e-11  -2.1505611101286064e-11  5.0548257068463487e-12  5.6883633370057025e-13  -9.7741215604638211e-13  4.3492537850138682e-13  -1.0750414290267619e-13  4.5396941801112391e-15  1.0642416014360787e-14  -6.6976738275903036e-15  2.7128577489007193e-15  -8.7378203075141269e-16  2.3765655003624986e-16  -5.5661539873023452e-17  1.1303449434645950e-17  -1.7968242388617771e-18  0.0000000000000000e+00  0.0000000000000000e+00  -5.1280501965097151e-10  1.0193937892802919e-09  7.2512868528336095e-10  -7.9865392439236968e-09  1.1878242377025429e-08  2.6277186195259892e-08  -1.0037403533228412e-07  -5.5798382198410140e-08  5.4149765091400908e-07  3.7282822515023739e-07  -2.2053822694067169e-06  -5.0972719701129341e-06  -4.5430773755196119e-06  -1.3570758904503612e-06  5.5213062540009813e-07  3.4592060345788826e-07  -9.9932798855916332e-08  -5.3269084439507264e-08  2.6147492240899436e-08  2.8149569549713098e-09  -5.0412664624460598e-09  1.2402170110272462e-09  3.0842540878814392e-10  -3.1142821551259254e-10  9.2104603492056218e-11  1.2087794921448166e-12  -1.3345945039985465e-11  6.6719558742920241e-12  -1.7887334360924552e-12  1.2668970855923548e-13  1.5082265957386714e-13  -1.0198206242159047e-13  4.2236418775520434e-14  -1.3726285427355819e-14  3.7415711390402919e-15  -8.7378203075141121e-16  1.7433122039477781e-16  -2.8913271056845910e-17  2.9870493387907020e-18  0.0000000000000000e+00  0.0000000000000000e+00  2.7628436639065848e-10  1.9052257587112056e-09  -7.7974476892372328e-09  9.0943764467346932e-09  2.6277186195259932e-08  -1.0842536616592453e-07  2.9362138923148098e-08  5.7153608564569722e-07  -6.1398515182569915e-07  -2.7919676388726496e-06  2.0308739150512305e-06  1.4934449474271016e-05  2.0913509181215601e-05  1.1650544253955197e-05  5.6911867991583488e-08  -2.3386424145149370e-06  -1.1024005043555507e-07  4.2815454013893488e-07  -4.7969846042382322e-08  -6.0364334517710843e-08  2.5024860939563279e-08  1.0361403530803067e-09  -4.2007925042360969e-09  1.5908406791136216e-09  -1.0535446811046362e-10  -1.7341107850465264e-10  1.0101754712472320e-10  -2.9560747322250093e-11  2.9014465313753895e-12  2.0934938169860198e-12  -1.5479029255217205e-12  6.5756538395845403e-13  -2.1583834413251426e-13  5.8967735914233153e-14  -1.3726285427355817e-14  2.7128577489007157e-15  -4.3909609967082219e-16  5.0965734259250479e-17  2.1092891627978954e-19  0.0000000000000000e+00  0.0000000000000000e+00  2.5231471505069548e-09  -5.4889611751910068e-09  4.8383216383296675e-10  3.4858679905926303e-08  -1.0037403533228419e-07  2.9362138923147896e-08  5.4374470782872258e-07  -1.0852604266218503e-06  -1.7235154417482616e-06  7.1137633751110572e-06  7.9089683464044042e-06  -3.0112462460287966e-05  -7.7296057719021877e-05  -6.9296887093600964e-05  -1.8565217781887436e-05  9.4489250158775262e-06  4.3110890376466369e-06  -1.9028998082745670e-06  -4.6942556127811758e-07  4.2006776973240110e-07  -4.4657374329525291e-08  -5.0211075997194921e-08  2.6002474335909827e-08  -3.6011112386874446e-09  -2.0722445312133201e-09  1.5020265776475545e-09  -4.8476028611292056e-10  6.0609547374963390e-11  2.8193236653962949e-11  -2.3397940867537631e-11  1.0236727602668982e-11  -3.3979749836579952e-12  9.3066455686219988e-13  -2.1583834413251461e-13  4.2236418775520516e-14  -6.6976738275903162e-15  7.4047170149462514e-16  -7.2174521610462441e-18  -2.5476096908130241e-17  0.0000000000000000e+00  0.0000000000000000e+00  3.4714122987894750e-10  -1.0722091049548808e-08  3.8951747422980969e-08  -6.3574576511913609e-08  -5.5798382198410285e-08  5.7153608564569775e-07  -1.0852604266218501e-06  -1.1708495676103713e-06  8.3381433614102578e-06  -3.3637029054778921e-06  -4.2951135593350352e-05  1.6390473299449428e-05  2.1917769794284079e-04  3.2165602192308008e-04  1.7286150787577937e-04  -7.7097553648703811e-06  -3.4310882237244680e-05  2.0236216717925068e-06  5.6513503794249373e-06  -1.5522021451120353e-06  -4.5999497193964352e-07  3.9682748016133342e-07  -8.5565534741905058e-08  -2.0900124241285632e-08  2.1757275429754490e-08  -7.8749553596741246e-09  1.2001619307473011e-09  3.6224289470801719e-10  -3.5177962204850473e-10  1.5933471093940925e-10  -5.3568472364681539e-11  1.4712655661836757e-11  -3.3979749836579811e-12  6.5756538395845191e-13  -1.0198206242159012e-13  1.0642416014360733e-14  7.3849939140254931e-17  -3.8651124497434276e-16  1.1520031584116494e-16  0.0000000000000000e+00  0.0000000000000000e+00  -1.0473125678502793e-08  1.5987403163359144e-08  1.4792639350934541e-08  -1.7564614288815891e-07  5.4149765091401014e-07  -6.1398515182569978e-07  -1.7235154417482656e-06  8.3381433614102629e-06  -7.4487382475427489e-06  -3.6648574967701019e-05  8.4532746933067151e-05  1.5344275535295382e-04  -3.9878881452392651e-04  -1.1773578232400937e-03  -1.0622617570706068e-03  -2.4474125406071439e-04  1.5958837291900707e-04  4.7066745860391542e-05  -3.2704838437485066e-05  -9.6160537588585453e-07  5.4585794220718968e-06  -1.7356895027696957e-06  -1.2240955137285142e-07  3.0273747810104111e-07  -1.2636197830293853e-07  2.2939608970648039e-08  4.2898706108855537e-09  -5.2506435178333662e-09  2.4792358824066663e-09  -8.4585478340492554e-10  2.3304112652193116e-10  -5.3568472364681785e-11  1.0236727602669000e-11  -1.5479029255217282e-12  1.5082265957386881e-13  4.5396941801108920e-15  -6.4237984173768745e-15  1.8103114881529399e-15  -3.0740284449575780e-16  0.0000000000000000e+00  0.0000000000000000e+00  -2.0897724270741185e-08  6.8521813633615141e-08  -1.5844570775843974e-07  1.9096925728028016e-07  3.7282822515023840e-07  -2.7919676388726551e-06  7.1137633751110674e-06  -3.3637029054778824e-06  -3.6648574967701053e-05  1.0167936495877594e-04  4.5813454824262112e-05  -6.3004351295257229e-04  3.9533068599361911e-06  3.2009576127788094e-03  4.9865360090723815e-03  2.5542064448910930e-03  -2.6955363923759240e-04  -4.8247822811454705e-04  8.9226337374044516e-05  6.1376646174780150e-05  -3.1367164942830824e-05  1.6344172316552771e-06  3.9360225838499861e-06  -1.9926608994657251e-06  4.2727474554485124e-07  4.2767596650362849e-08  -7.7583599920797172e-08  3.8554585582172733e-08  -1.3381580522674849e-08  3.6997961975459847e-09  -8.4585478340492461e-10  1.5933471093940966e-10  -2.3397940867537618e-11  2.0934938169860226e-12  1.2668970855923525e-13  -1.0750414290267601e-13  2.8088113799180183e-14  -4.8053800244010542e-15  4.1244350867432863e-16  0.0000000000000000e+00  0.0000000000000000e+00  -1.8420379158472798e-08  8.9454613004195859e-08  -3.3719600037344414e-07  1.0147252497236486e-06  -2.2053822694067165e-06  2.0308739150512280e-06  7.9089683464044245e-06  -4.2951135593350441e-05  8.4532746933067179e-05  4.5813454824262206e-05  -6.3260884222189455e-04  8.0041726742736171e-04  2.7978155714060938e-03  -4.9984796243429152e-03  -1.8041284087981203e-02  -1.6392312218522422e-02  -3.0070127159969942e-03  2.6468347687071772e-03  3.5501139681912180e-04  -4.9730075773815759e-04  8.4270858810175323e-05  4.4770368236488339e-05  -3.0596643163297858e-05  7.7922087806144815e-06  2.3299797563604243e-07  -1.1296993345177405e-06  5.9898080932806513e-07  -2.1218305376171113e-07  5.8902977017542996e-08  -1.3381580522674854e-08  2.4792358824066659e-09  -3.5177962204850618e-10  2.8193236653963107e-11  2.9014465313753503e-12  -1.7887334360924477e-12  4.3492537850138485e-13  -6.9312913198205212e-14  5.9658968752859612e-15  6.4426146555677820e-16  0.0000000000000000e+00  0.0000000000000000e+00  -6.3489784989598353e-09  5.2391047522393800e-08  -2.9890209449030649e-07  1.3676906099871419e-06  -5.0972719701129299e-06  1.4934449474271013e-05  -3.0112462460287949e-05  1.6390473299449364e-05  1.5344275535295420e-04  -6.3004351295257283e-04  8.0041726742736139e-04  2.1281991482710754e-03  -8.4978286250473340e-03  -4.1814082392028851e-03  4.6323943562827909e-02  7.8189603908502436e-02  3.7429766625352148e-02  -6.8635820931998073e-03  -6.2309553539728934e-03  2.1822376350424510e-03  3.5184465924235144e-04  -4.4902299374696903e-04  1.3927544137790502e-04  -4.2837808217641315e-06  -1.6083456019585735e-05  9.2905749616789542e-06  -3.3738765212908904e-06  9.4101208446828436e-07  -2.1218305376171142e-07  3.8554585582172812e-08  -5.2506435178333819e-09  3.6224289470802112e-10  6.0609547374962847e-11  -2.9560747322250035e-11  6.6719558742920128e-12  -9.7741215604638029e-13  6.6240743804805755e-14  1.2535642684454559e-14  -5.4891652755133158e-15  0.0000000000000000e+00  0.0000000000000000e+00  1.7182630623000342e-09  4.2374849301998298e-09  -9.7000625875352328e-08  7.8351772495356345e-07  -4.5430773755196077e-06  2.0913509181215588e-05  -7.7296057719021863e-05  2.1917769794284076e-04  -3.9878881452392646e-04  3.9533068599347249e-06  2.7978155714060986e-03  -8.4978286250473409e-03  2.5410080885856696e-03  4.8019247785874138e-02  -5.5629073753816802e-02  -2.7883175767283996e-01  -2.5535284291996652e-01  -3.1255040722591394e-02  4.2499247968409599e-02  -1.5411154622523267e-03  -6.0303046159995181e-03  2.4304459855920136e-03  -2.1359649789402338e-04  -2.2056115131199405e-04  1.4370303025036289e-04  -5.3835995635686169e-05  1.5099019944636900e-05  -3.3738765212908782e-06  5.9898080932806333e-07  -7.7583599920796920e-08  4.2898706108855240e-09  1.2001619307473052e-09  -4.8476028611291921e-10  1.0101754712472286e-10  -1.3345945039985393e-11  5.6883633370055996e-13  2.6079625070649440e-13  -9.0127350008767489e-14  1.5302358335406725e-14  0.0000000000000000e+00  0.0000000000000000e+00  1.7407800524776335e-09  -1.0156177830482316e-08  3.1871639053643486e-08  3.6149771021076727e-08  -1.3570758904503595e-06  1.1650544253955189e-05  -6.9296887093600923e-05  3.2165602192307997e-04  -1.1773578232400935e-03  3.2009576127788124e-03  -4.9984796243429117e-03  -4.1814082392029111e-03  4.8019247785874214e-02  -9.4350721822419506e-02  -1.3830837796945453e-01  6.5774437557734677e-01  1.2479229124672515e+00  5.3856189048543601e-01  -1.5542828944055123e-01  -6.4610076523480386e-02  4.0842710652904131e-02  -6.0981426455469145e-03  -2.8188393404736745e-03  2.2118222537296701e-03  -8.6295685045481693e-04  2.4365556550896231e-04  -5.3835995635686420e-05  9.2905749616789746e-06  -1.1296993345177479e-06  4.2767596650364291e-08  2.2939608970647754e-08  -7.8749553596741015e-09  1.5020265776475464e-09  -1.7341107850465179e-10  1.2087794921447344e-12  5.0548257068463438e-12  -1.4157310552148746e-12  2.2599698960936350e-13  -1.3853665846795251e-14  0.0000000000000000e+00  0.0000000000000000e+00  -1.6523205230915320e-10  -2.3085215052864351e-09  2.5962404205148191e-08  -1.5559862631327665e-07  5.5213062540009951e-07  5.6911867991575322e-08  -1.8565217781887402e-05  1.7286150787577923e-04  -1.0622617570706062e-03  4.9865360090723806e-03  -1.8041284087981217e-02  4.6323943562827916e-02  -5.5629073753816781e-02  -1.3830837796945492e-01  7.5004632202076682e-01  -4.2164854957403330e-01  -4.3666267052129371e+00  -4.0355533830187094e+00  -1.5556154015773743e-01  6.3241333597931471e-01  -1.4788362212224285e-01  -3.0532792203469251e-02  3.3727058265029995e-02  -1.3917476355952274e-02  3.9624829923154250e-03  -8.6295685045481574e-04  1.4370303025036324e-04  -1.6083456019585725e-05  2.3299797563604344e-07  4.2727474554485108e-07  -1.2636197830293837e-07  2.1757275429754533e-08  -2.0722445312133184e-09  -1.0535446811046338e-10  9.2104603492056179e-11  -2.1505611101286032e-11  2.9198262548217125e-12  -1.1216412170993732e-13  -6.0977920118837697e-14  0.0000000000000000e+00  0.0000000000000000e+00  -3.3365398658019207e-10  1.8855737363393393e-09  -4.6133994570598513e-09  -2.2004294929704767e-08  3.4592060345788799e-07  -2.3386424145149374e-06  9.4489250158775381e-06  -7.7097553648704506e-06  -2.4474125406071402e-04  2.5542064448910904e-03  -1.6392312218522415e-02  7.8189603908502422e-02  -2.7883175767283985e-01  6.5774437557734666e-01  -4.2164854957403108e-01  -3.4096163295103086e+00  8.8961962683739149e+00  2.0549701329524840e+01  7.3805710662068478e+00  -3.2938679125551800e+00  -1.6287586993497519e-01  5.0420588095264518e-01  -2.2641466158406146e-01  6.5161802463001101e-02  -1.3917476355952273e-02  2.2118222537296692e-03  -2.2056115131199516e-04  -4.2837808217639536e-06  7.7922087806144460e-06  -1.9926608994657179e-06  3.0273747810103947e-07  -2.0900124241285450e-08  -3.6011112386874752e-09  1.5908406791136267e-09  -3.1142821551259316e-10  3.3698034908499892e-11  6.4158879636841146e-13  -1.2040024289680451e-12  2.7775787159582867e-13  0.0000000000000000e+00  0.0000000000000000e+00  5.5899865158958415e-11  3.1900809515730934e-10  -4.6460093659315006e-09  2.9380782746017016e-08  -9.9932798855916543e-08  -1.1024005043555400e-07  4.3110890376466360e-06  -3.4310882237244707e-05  1.5958837291900726e-04  -2.6955363923759337e-04  -3.0070127159969907e-03  3.7429766625352162e-02  -2.5535284291996657e-01  1.2479229124672520e+00  -4.3666267052129397e+00  8.8961962683739078e+00  3.6761830401105997e+00  -6.9979224707739078e+01  -6.5391674997987593e+01  5.7091194853731890e+00  7.1615819878998135e+00  -3.7329282561270469e+00  1.0903126631461180e+00  -2.2641466158406201e-01  3.3727058265030092e-02  -2.8188393404736936e-03  -2.1359649789402078e-04  1.3927544137790434e-04  -3.0596643163297810e-05  3.9360225838499818e-06  -1.2240955137285144e-07  -8.5565534741905230e-08  2.6002474335909797e-08  -4.2007925042360936e-09  3.0842540878814304e-10  4.6978482534278282e-11  -2.1582234507340177e-11  4.1624121673083616e-12  -3.7183826169305054e-13  0.0000000000000000e+00  0.0000000000000000e+00  5.1353919793522203e-11  -3.7771396229234603e-10  1.3711066791412433e-09  8.8423046180342531e-10  -5.3269084439507257e-08  4.2815454013893546e-07  -1.9028998082745716e-06  2.0236216717925259e-06  4.7066745860391495e-05  -4.8247822811454738e-04  2.6468347687071811e-03  -6.8635820931998333e-03  -3.1255040722591290e-02  5.3856189048543612e-01  -4.0355533830187120e+00  2.0549701329524858e+01  -6.9979224707739093e+01  9.9412451296401755e+01  3.6287739809498078e+02  8.2839121637501762e+01  -6.2996088210103792e+01  1.8812275811877200e+01  -3.7329282561270345e+00  5.0420588095264396e-01  -3.0532792203469036e-02  -6.0981426455469223e-03  2.4304459855920171e-03  -4.4902299374696767e-04  4.4770368236488136e-05  1.6344172316553186e-06  -1.7356895027697003e-06  3.9682748016133532e-07  -5.0211075997195007e-08  1.0361403530803224e-09  1.2402170110272433e-09  -3.5012971149551231e-10  5.2620749639833704e-11  -2.8858958672333004e-12  -8.5289932701809173e-13  0.0000000000000000e+00  0.0000000000000000e+00  -1.9969536946853976e-11  1.7244135921477676e-11  5.4975813895705249e-10  -5.2281382858622591e-09  2.6147492240899466e-08  -4.7969846042382461e-08  -4.6942556127811727e-07  5.6513503794249432e-06  -3.2704838437485107e-05  8.9226337374044746e-05  3.5501139681912120e-04  -6.2309553539728960e-03  4.2499247968409655e-02  -1.5542828944055148e-01  -1.5556154015773527e-01  7.3805710662068424e+00  -6.5391674997987622e+01  3.6287739809498089e+02  -1.1803028413453399e+03  -1.1192907965264035e+03  3.4770560671794453e+02  -6.2996088210104055e+01  7.1615819878998401e+00  -1.6287586993498160e-01  -1.4788362212224163e-01  4.0842710652903888e-02  -6.0303046159994990e-03  3.5184465924234596e-04  8.4270858810176055e-05  -3.1367164942830925e-05  5.4585794220719044e-06  -4.5999497193964521e-07  -4.4657374329525305e-08  2.5024860939563322e-08  -5.041266462446068