<?xml version="1.0"?>
<VTKFile type="UnstructuredGrid"  version="0.1"  >
<UnstructuredGrid>
<Piece  NumberOfPoints="1681" NumberOfCells="3200">
<Points>
<DataArray  type="Float64"  NumberOfComponents="3"  format="ascii">-2 -2 0  -1.9 -2 0  -1.8 -2 0  -1.7 -2 0  -1.6 -2 0  -1.5 -2 0  -1.4 -2 0  -1.3 -2 0  -1.2 -2 0  -1.1 -2 0  -1 -2 0  -0.8999999999999999 -2 0  -0.8 -2 0  -0.7 -2 0  -0.6000000000000001 -2 0  -0.5 -2 0  -0.3999999999999999 -2 0  -0.3 -2 0  -0.2 -2 0  -0.1000000000000001 -2 0  0 -2 0  0.1000000000000001 -2 0  0.2000000000000002 -2 0  0.2999999999999998 -2 0  0.3999999999999999 -2 0  0.5 -2 0  0.6000000000000001 -2 0  0.7000000000000002 -2 0  0.7999999999999998 -2 0  0.8999999999999999 -2 0  1 -2 0  1.1 -2 0  1.2 -2 0  1.3 -2 0  1.4 -2 0  1.5 -2 0  1.6 -2 0  1.7 -2 0  1.8 -2 0  1.9 -2 0  2 -2 0  -2 -1.9 0  -1.9 -1.9 0  -1.8 -1.9 0  -1.7 -1.9 0  -1.6 -1.9 0  -1.5 -1.9 0  -1.4 -1.9 0  -1.3 -1.9 0  -1.2 -1.9 0  -1.1 -1.9 0  -1 -1.9 0  -0.8999999999999999 -1.9 0  -0.8 -1.9 0  -0.7 -1.9 0  -0.6000000000000001 -1.9 0  -0.5 -1.9 0  -0.3999999999999999 -1.9 0  -0.3 -1.9 0  -0.2 -1.9 0  -0.1000000000000001 -1.9 0  0 -1.9 0  0.1000000000000001 -1.9 0  0.2000000000000002 -1.9 0  0.2999999999999998 -1.9 0  0.3999999999999999 -1.9 0  0.5 -1.9 0  0.6000000000000001 -1.9 0  0.7000000000000002 -1.9 0  0.7999999999999998 -1.9 0  0.8999999999999999 -1.9 0  1 -1.9 0  1.1 -1.9 0  1.2 -1.9 0  1.3 -1.9 0  1.4 -1.9 0  1.5 -1.9 0  1.6 -1.9 0  1.7 -1.9 0  1.8 -1.9 0  1.9 -1.9 0  2 -1.9 0  -2 -1.8 0  -1.9 -1.8 0  -1.8 -1.8 0  -1.7 -1.8 0  -1.6 -1.8 0  -1.5 -1.8 0  -1.4 -1.8 0  -1.3 -1.8 0  -1.2 -1.8 0  -1.1 -1.8 0  -1 -1.8 0  -0.8999999999999999 -1.8 0  -0.8 -1.8 0  -0.7 -1.8 0  -0.6000000000000001 -1.8 0  -0.5 -1.8 0  -0.3999999999999999 -1.8 0  -0.3 -1.8 0  -0.2 -1.8 0  -0.1000000000000001 -1.8 0  0 -1.8 0  0.1000000000000001 -1.8 0  0.2000000000000002 -1.8 0  0.2999999999999998 -1.8 0  0.3999999999999999 -1.8 0  0.5 -1.8 0  0.6000000000000001 -1.8 0  0.7000000000000002 -1.8 0  0.7999999999999998 -1.8 0  0.8999999999999999 -1.8 0  1 -1.8 0  1.1 -1.8 0  1.2 -1.8 0  1.3 -1.8 0  1.4 -1.8 0  1.5 -1.8 0  1.6 -1.8 0  1.7 -1.8 0  1.8 -1.8 0  1.9 -1.8 0  2 -1.8 0  -2 -1.7 0  -1.9 -1.7 0  -1.8 -1.7 0  -1.7 -1.7 0  -1.6 -1.7 0  -1.5 -1.7 0  -1.4 -1.7 0  -1.3 -1.7 0  -1.2 -1.7 0  -1.1 -1.7 0  -1 -1.7 0  -0.8999999999999999 -1.7 0  -0.8 -1.7 0  -0.7 -1.7 0  -0.6000000000000001 -1.7 0  -0.5 -1.7 0  -0.3999999999999999 -1.7 0  -0.3 -1.7 0  -0.2 -1.7 0  -0.1000000000000001 -1.7 0  0 -1.7 0  0.1000000000000001 -1.7 0  0.2000000000000002 -1.7 0  0.2999999999999998 -1.7 0  0.3999999999999999 -1.7 0  0.5 -1.7 0  0.6000000000000001 -1.7 0  0.7000000000000002 -1.7 0  0.7999999999999998 -1.7 0  0.8999999999999999 -1.7 0  1 -1.7 0  1.1 -1.7 0  1.2 -1.7 0  1.3 -1.7 0  1.4 -1.7 0  1.5 -1.7 0  1.6 -1.7 0  1.7 -1.7 0  1.8 -1.7 0  1.9 -1.7 0  2 -1.7 0  -2 -1.6 0  -1.9 -1.6 0  -1.8 -1.6 0  -1.7 -1.6 0  -1.6 -1.6 0  -1.5 -1.6 0  -1.4 -1.6 0  -1.3 -1.6 0  -1.2 -1.6 0  -1.1 -1.6 0  -1 -1.6 0  -0.8999999999999999 -1.6 0  -0.8 -1.6 0  -0.7 -1.6 0  -0.6000000000000001 -1.6 0  -0.5 -1.6 0  -0.3999999999999999 -1.6 0  -0.3 -1.6 0  -0.2 -1.6 0  -0.1000000000000001 -1.6 0  0 -1.6 0  0.1000000000000001 -1.6 0  0.2000000000000002 -1.6 0  0.2999999999999998 -1.6 0  0.3999999999999999 -1.6 0  0.5 -1.6 0  0.6000000000000001 -1.6 0  0.7000000000000002 -1.6 0  0.7999999999999998 -1.6 0  0.8999999999999999 -1.6 0  1 -1.6 0  1.1 -1.6 0  1.2 -1.6 0  1.3 -1.6 0  1.4 -1.6 0  1.5 -1.6 0  1.6 -1.6 0  1.7 -1.6 0  1.8 -1.6 0  1.9 -1.6 0  2 -1.6 0  -2 -1.5 0  -1.9 -1.5 0  -1.8 -1.5 0  -1.7 -1.5 0  -1.6 -1.5 0  -1.5 -1.5 0  -1.4 -1.5 0  -1.3 -1.5 0  -1.2 -1.5 0  -1.1 -1.5 0  -1 -1.5 0  -0.8999999999999999 -1.5 0  -0.8 -1.5 0  -0.7 -1.5 0  -0.6000000000000001 -1.5 0  -0.5 -1.5 0  -0.3999999999999999 -1.5 0  -0.3 -1.5 0  -0.2 -1.5 0  -0.1000000000000001 -1.5 0  0 -1.5 0  0.1000000000000001 -1.5 0  0.2000000000000002 -1.5 0  0.2999999999999998 -1.5 0  0.3999999999999999 -1.5 0  0.5 -1.5 0  0.6000000000000001 -1.5 0  0.7000000000000002 -1.5 0  0.7999999999999998 -1.5 0  0.8999999999999999 -1.5 0  1 -1.5 0  1.1 -1.5 0  1.2 -1.5 0  1.3 -1.5 0  1.4 -1.5 0  1.5 -1.5 0  1.6 -1.5 0  1.7 -1.5 0  1.8 -1.5 0  1.9 -1.5 0  2 -1.5 0  -2 -1.4 0  -1.9 -1.4 0  -1.8 -1.4 0  -1.7 -1.4 0  -1.6 -1.4 0  -1.5 -1.4 0  -1.4 -1.4 0  -1.3 -1.4 0  -1.2 -1.4 0  -1.1 -1.4 0  -1 -1.4 0  -0.8999999999999999 -1.4 0  -0.8 -1.4 0  -0.7 -1.4 0  -0.6000000000000001 -1.4 0  -0.5 -1.4 0  -0.3999999999999999 -1.4 0  -0.3 -1.4 0  -0.2 -1.4 0  -0.1000000000000001 -1.4 0  0 -1.4 0  0.1000000000000001 -1.4 0  0.2000000000000002 -1.4 0  0.2999999999999998 -1.4 0  0.3999999999999999 -1.4 0  0.5 -1.4 0  0.6000000000000001 -1.4 0  0.7000000000000002 -1.4 0  0.7999999999999998 -1.4 0  0.8999999999999999 -1.4 0  1 -1.4 0  1.1 -1.4 0  1.2 -1.4 0  1.3 -1.4 0  1.4 -1.4 0  1.5 -1.4 0  1.6 -1.4 0  1.7 -1.4 0  1.8 -1.4 0  1.9 -1.4 0  2 -1.4 0  -2 -1.3 0  -1.9 -1.3 0  -1.8 -1.3 0  -1.7 -1.3 0  -1.6 -1.3 0  -1.5 -1.3 0  -1.4 -1.3 0  -1.3 -1.3 0  -1.2 -1.3 0  -1.1 -1.3 0  -1 -1.3 0  -0.8999999999999999 -1.3 0  -0.8 -1.3 0  -0.7 -1.3 0  -0.6000000000000001 -1.3 0  -0.5 -1.3 0  -0.3999999999999999 -1.3 0  -0.3 -1.3 0  -0.2 -1.3 0  -0.1000000000000001 -1.3 0  0 -1.3 0  0.1000000000000001 -1.3 0  0.2000000000000002 -1.3 0  0.2999999999999998 -1.3 0  0.3999999999999999 -1.3 0  0.5 -1.3 0  0.6000000000000001 -1.3 0  0.7000000000000002 -1.3 0  0.7999999999999998 -1.3 0  0.8999999999999999 -1.3 0  1 -1.3 0  1.1 -1.3 0  1.2 -1.3 0  1.3 -1.3 0  1.4 -1.3 0  1.5 -1.3 0  1.6 -1.3 0  1.7 -1.3 0  1.8 -1.3 0  1.9 -1.3 0  2 -1.3 0  -2 -1.2 0  -1.9 -1.2 0  -1.8 -1.2 0  -1.7 -1.2 0  -1.6 -1.2 0  -1.5 -1.2 0  -1.4 -1.2 0  -1.3 -1.2 0  -1.2 -1.2 0  -1.1 -1.2 0  -1 -1.2 0  -0.8999999999999999 -1.2 0  -0.8 -1.2 0  -0.7 -1.2 0  -0.6000000000000001 -1.2 0  -0.5 -1.2 0  -0.3999999999999999 -1.2 0  -0.3 -1.2 0  -0.2 -1.2 0  -0.1000000000000001 -1.2 0  0 -1.2 0  0.1000000000000001 -1.2 0  0.2000000000000002 -1.2 0  0.2999999999999998 -1.2 0  0.3999999999999999 -1.2 0  0.5 -1.2 0  0.6000000000000001 -1.2 0  0.7000000000000002 -1.2 0  0.7999999999999998 -1.2 0  0.8999999999999999 -1.2 0  1 -1.2 0  1.1 -1.2 0  1.2 -1.2 0  1.3 -1.2 0  1.4 -1.2 0  1.5 -1.2 0  1.6 -1.2 0  1.7 -1.2 0  1.8 -1.2 0  1.9 -1.2 0  2 -1.2 0  -2 -1.1 0  -1.9 -1.1 0  -1.8 -1.1 0  -1.7 -1.1 0  -1.6 -1.1 0  -1.5 -1.1 0  -1.4 -1.1 0  -1.3 -1.1 0  -1.2 -1.1 0  -1.1 -1.1 0  -1 -1.1 0  -0.8999999999999999 -1.1 0  -0.8 -1.1 0  -0.7 -1.1 0  -0.6000000000000001 -1.1 0  -0.5 -1.1 0  -0.3999999999999999 -1.1 0  -0.3 -1.1 0  -0.2 -1.1 0  -0.1000000000000001 -1.1 0  0 -1.1 0  0.1000000000000001 -1.1 0  0.2000000000000002 -1.1 0  0.2999999999999998 -1.1 0  0.3999999999999999 -1.1 0  0.5 -1.1 0  0.6000000000000001 -1.1 0  0.7000000000000002 -1.1 0  0.7999999999999998 -1.1 0  0.8999999999999999 -1.1 0  1 -1.1 0  1.1 -1.1 0  1.2 -1.1 0  1.3 -1.1 0  1.4 -1.1 0  1.5 -1.1 0  1.6 -1.1 0  1.7 -1.1 0  1.8 -1.1 0  1.9 -1.1 0  2 -1.1 0  -2 -1 0  -1.9 -1 0  -1.8 -1 0  -1.7 -1 0  -1.6 -1 0  -1.5 -1 0  -1.4 -1 0  -1.3 -1 0  -1.2 -1 0  -1.1 -1 0  -1 -1 0  -0.8999999999999999 -1 0  -0.8 -1 0  -0.7 -1 0  -0.6000000000000001 -1 0  -0.5 -1 0  -0.3999999999999999 -1 0  -0.3 -1 0  -0.2 -1 0  -0.1000000000000001 -1 0  0 -1 0  0.1000000000000001 -1 0  0.2000000000000002 -1 0  0.2999999999999998 -1 0  0.3999999999999999 -1 0  0.5 -1 0  0.6000000000000001 -1 0  0.7000000000000002 -1 0  0.7999999999999998 -1 0  0.8999999999999999 -1 0  1 -1 0  1.1 -1 0  1.2 -1 0  1.3 -1 0  1.4 -1 0  1.5 -1 0  1.6 -1 0  1.7 -1 0  1.8 -1 0  1.9 -1 0  2 -1 0  -2 -0.8999999999999999 0  -1.9 -0.8999999999999999 0  -1.8 -0.8999999999999999 0  -1.7 -0.8999999999999999 0  -1.6 -0.8999999999999999 0  -1.5 -0.8999999999999999 0  -1.4 -0.8999999999999999 0  -1.3 -0.8999999999999999 0  -1.2 -0.8999999999999999 0  -1.1 -0.8999999999999999 0  -1 -0.8999999999999999 0  -0.8999999999999999 -0.8999999999999999 0  -0.8 -0.8999999999999999 0  -0.7 -0.8999999999999999 0  -0.6000000000000001 -0.8999999999999999 0  -0.5 -0.8999999999999999 0  -0.3999999999999999 -0.8999999999999999 0  -0.3 -0.8999999999999999 0  -0.2 -0.8999999999999999 0  -0.1000000000000001 -0.8999999999999999 0  0 -0.8999999999999999 0  0.1000000000000001 -0.8999999999999999 0  0.2000000000000002 -0.8999999999999999 0  0.2999999999999998 -0.8999999999999999 0  0.3999999999999999 -0.8999999999999999 0  0.5 -0.8999999999999999 0  0.6000000000000001 -0.8999999999999999 0  0.7000000000000002 -0.8999999999999999 0  0.7999999999999998 -0.8999999999999999 0  0.8999999999999999 -0.8999999999999999 0  1 -0.8999999999999999 0  1.1 -0.8999999999999999 0  1.2 -0.8999999999999999 0  1.3 -0.8999999999999999 0  1.4 -0.8999999999999999 0  1.5 -0.8999999999999999 0  1.6 -0.8999999999999999 0  1.7 -0.8999999999999999 0  1.8 -0.8999999999999999 0  1.9 -0.8999999999999999 0  2 -0.8999999999999999 0  -2 -0.8 0  -1.9 -0.8 0  -1.8 -0.8 0  -1.7 -0.8 0  -1.6 -0.8 0  -1.5 -0.8 0  -1.4 -0.8 0  -1.3 -0.8 0  -1.2 -0.8 0  -1.1 -0.8 0  -1 -0.8 0  -0.8999999999999999 -0.8 0  -0.8 -0.8 0  -0.7 -0.8 0  -0.6000000000000001 -0.8 0  -0.5 -0.8 0  -0.3999999999999999 -0.8 0  -0.3 -0.8 0  -0.2 -0.8 0  -0.1000000000000001 -0.8 0  0 -0.8 0  0.1000000000000001 -0.8 0  0.2000000000000002 -0.8 0  0.2999999999999998 -0.8 0  0.3999999999999999 -0.8 0  0.5 -0.8 0  0.6000000000000001 -0.8 0  0.7000000000000002 -0.8 0  0.7999999999999998 -0.8 0  0.8999999999999999 -0.8 0  1 -0.8 0  1.1 -0.8 0  1.2 -0.8 0  1.3 -0.8 0  1.4 -0.8 0  1.5 -0.8 0  1.6 -0.8 0  1.7 -0.8 0  1.8 -0.8 0  1.9 -0.8 0  2 -0.8 0  -2 -0.7 0  -1.9 -0.7 0  -1.8 -0.7 0  -1.7 -0.7 0  -1.6 -0.7 0  -1.5 -0.7 0  -1.4 -0.7 0  -1.3 -0.7 0  -1.2 -0.7 0  -1.1 -0.7 0  -1 -0.7 0  -0.8999999999999999 -0.7 0  -0.8 -0.7 0  -0.7 -0.7 0  -0.6000000000000001 -0.7 0  -0.5 -0.7 0  -0.3999999999999999 -0.7 0  -0.3 -0.7 0  -0.2 -0.7 0  -0.1000000000000001 -0.7 0  0 -0.7 0  0.1000000000000001 -0.7 0  0.2000000000000002 -0.7 0  0.2999999999999998 -0.7 0  0.3999999999999999 -0.7 0  0.5 -0.7 0  0.600000000000000
[...]
<PointData  Scalars="f_1726"> 
<DataArray  type="Float64"  Name="f_1726"  format="ascii">0.0000000000000000e+00  0.0000000000000000e+00  0.0000000000000000e+00  0.0000000000000000e+00  0.0000000000000000e+00  0.0000000000000000e+00  0.0000000000000000e+00  0.0000000000000000e+00  0.0000000000000000e+00  0.0000000000000000e+00  0.0000000000000000e+00  0.0000000000000000e+00  0.0000000000000000e+00  0.0000000000000000e+00  0.0000000000000000e+00  0.0000000000000000e+00  0.0000000000000000e+00  0.0000000000000000e+00  0.0000000000000000e+00  0.0000000000000000e+00  0.0000000000000000e+00  0.0000000000000000e+00  0.0000000000000000e+00  0.0000000000000000e+00  0.0000000000000000e+00  0.0000000000000000e+00  0.0000000000000000e+00  0.0000000000000000e+00  0.0000000000000000e+00  0.0000000000000000e+00  0.0000000000000000e+00  0.0000000000000000e+00  0.0000000000000000e+00  0.0000000000000000e+00  0.0000000000000000e+00  0.0000000000000000e+00  0.0000000000000000e+00  0.0000000000000000e+00  0.0000000000000000e+00  0.0000000000000000e+00  0.0000000000000000e+00  0.0000000000000000e+00  -1.2151305218902321e-11  -1.4160635607108556e-11  9.3053564475745388e-11  -2.2423270670531403e-11  -4.7128380178382235e-10  2.5391394697081235e-10  2.3188509004070973e-09  3.1903361375950619e-10  -9.6251290396572504e-09  -1.9205660174013689e-08  -1.6928902774807527e-08  -5.8349091950583715e-09  1.5791373279002507e-09  1.5998311439296910e-09  -1.5185340783481756e-10  -3.0663841664979592e-10  5.1373718980457374e-11  4.7195853451796105e-11  -1.8352627083450637e-11  -3.3529673291611176e-12  3.9957332699120612e-12  -7.8384107403927600e-13  -3.4173095602430368e-13  2.5526814419671799e-13  -5.6040609817033101e-14  -1.2731950856027530e-14  1.4063344421779182e-14  -5.0447140346333035e-15  5.9209637424585179e-16  3.7904844402926287e-16  -2.8251279859102680e-16  1.0587268208348285e-16  -2.3413327376648304e-17  1.9385025060432680e-19  2.7451914754252708e-18  -1.6513374986158709e-18  6.7187852797174965e-19  -2.2272124319146344e-19  7.0601178397293926e-20  0.0000000000000000e+00  0.0000000000000000e+00  -1.4160635607108546e-11  1.0183762101747296e-10  -9.0594593950582094e-11  -4.4612466937018760e-10  9.3685467598156867e-10  1.7509618752036009e-09  -5.0445264600734455e-09  -9.8539359781286080e-09  1.4692921977649217e-08  6.2973683167829209e-08  8.2211578452200450e-08  4.8149006171187779e-08  3.8943807712052041e-09  -9.3338440852237693e-09  -2.1216032406461349e-09  1.7329010539143347e-09  2.9317838578857951e-10  -3.4713090807326137e-10  1.5847898565974211e-11  5.4418016602767045e-11  -1.8339129051085508e-11  -2.6522282812045094e-12  3.8253865614176190e-12  -1.1065157717590668e-12  -1.0308232501152487e-13  2.0769827980095209e-13  -8.2829844734638483e-14  1.1520646475251665e-14  5.4828452388174608e-15  -4.4162940691516273e-15  1.6637327012328044e-15  -3.5521588514809703e-16  -6.6330635686163270e-18  4.6839098842581039e-17  -2.6572197586815706e-17  1.0388222460179743e-17  -3.2849481981403158e-18  8.9234014056211361e-19  -2.2272124319146364e-19  0.0000000000000000e+00  0.0000000000000000e+00  9.3053564475745349e-11  -9.0594593950582133e-11  -4.0786979006611143e-10  1.2079297263094584e-09  6.6641587052998379e-10  -7.1660975426788468e-09  4.4465684394370049e-10  3.5797870356495593e-08  1.3594896782544018e-08  -1.4561654560158222e-07  -3.0989363776208315e-07  -2.7470034429151515e-07  -8.9146599557588341e-08  2.9291030014694917e-08  2.3860258945160982e-08  -4.2398579420115864e-09  -4.2698274650075320e-09  1.2600897878041136e-09  5.0524487058575067e-10  -3.3253896414640995e-10  1.3546032576378517e-11  4.8360109578986950e-11  -1.9834746423761875e-11  5.8964010793072010e-13  2.6834113653122636e-12  -1.3011009807571885e-12  2.3967988575380520e-13  6.0877308873779971e-14  -6.3700728333345284e-14  2.5813852339479866e-14  -5.9036710328905202e-15  6.7870396633810496e-17  6.8051658080734094e-16  -4.0354300615497243e-16  1.6021582700805865e-16  -5.1154690611949618e-17  1.3862165746930596e-17  -3.2849481981403019e-18  6.7187852797174782e-19  0.0000000000000000e+00  0.0000000000000000e+00  -2.2423270670531406e-11  -4.4612466937018734e-10  1.2079297263094589e-09  2.2669533741091238e-10  -7.3398785771127612e-09  8.3580155077022437e-09  3.2036213690754900e-08  -5.8427018003302280e-08  -1.6142428177738518e-07  1.7550670166243695e-07  9.3256414256882976e-07  1.2569503137420287e-06  7.2007721849613467e-07  3.3222766680450257e-08  -1.4299998898445336e-07  -2.0222633111318023e-08  2.7001855405689778e-08  8.1263536377903823e-10  -4.8048220925952341e-09  1.0006129693488723e-09  4.9268332956970173e-10  -3.2178012154286055e-10  4.3174690188989823e-11  3.0969544750421973e-11  -1.9764327124560509e-11  4.6455424287745344e-12  5.2277832639321889e-13  -8.9827224609615670e-13  3.9970998336153554e-13  -9.8799659194382456e-14  4.1721204944423214e-15  9.7807121366064955e-15  -6.1553710740256900e-15  2.4932008553091623e-15  -8.0303292987107688e-16  2.1841377936616879e-16  -5.1154690611949889e-17  1.0388222460179761e-17  -1.6513374986158788e-18  0.0000000000000000e+00  0.0000000000000000e+00  -4.7128380178382256e-10  9.3685467598156867e-10  6.6641587052998213e-10  -7.3398785771127637e-09  1.0916475095669725e-08  2.4149553408647122e-08  -9.2246868027889807e-08  -5.1280452975581061e-08  4.9765322452081023e-07  3.4264076330748611e-07  -2.0268150670990846e-06  -4.6845518681466497e-06  -4.1752297565071163e-06  -1.2471950555318656e-06  5.0742525959855800e-07  3.1791182002069344e-07  -9.1841357948815662e-08  -4.8955949474288435e-08  2.4030360620867921e-08  2.5870332090345739e-09  -4.6330810604075999e-09  1.1397981018042920e-09  2.8345256705821462e-10  -2.8621224006235850e-10  8.4647002334478017e-11  1.1109060417623542e-12  -1.2265339604365142e-11  6.1317354730856651e-12  -1.6439017986080983e-12  1.1643179221864651e-13  1.3861072664128460e-13  -9.3724695059566418e-14  3.8816585742099384e-14  -1.2614884278974273e-14  3.4386205350558247e-15  -8.0303292987107569e-16  1.6021582700805907e-16  -2.6572197586815669e-17  2.7451914754252704e-18  0.0000000000000000e+00  0.0000000000000000e+00  2.5391394697081447e-10  1.7509618752035999e-09  -7.1660975426788468e-09  8.3580155077022570e-09  2.4149553408647122e-08  -9.9646292096086271e-08  2.6984721151178235e-08  5.2525948260623361e-07  -5.6427149794317467e-07  -2.5659053107570580e-06  1.8664364484582792e-06  1.3725224707381657e-05  1.9220166998896678e-05  1.0707213421178671e-05  5.2303781136831604e-08  -2.1492852953655951e-06  -1.0131404351983544e-07  3.9348737179877823e-07  -4.4085784162615734e-08  -5.5476705518639732e-08  2.2998627452469267e-08  9.5224529025413718e-10  -3.8606592877130041e-09  1.4620321848552048e-09  -9.6824041035725693e-11  -1.5937018792197163e-10  9.2838275429166497e-11  -2.7167248462355398e-11  2.6665198264045253e-12  1.9239860907594559e-12  -1.4225710505499641e-12  6.0432309005926890e-13  -1.9836216787177780e-13  5.4193187857558865e-14  -1.2614884278974270e-14  2.4932008553091587e-15  -4.0354300615497366e-16  4.6839098842581070e-17  1.9385025060429864e-19  0.0000000000000000e+00  0.0000000000000000e+00  2.3188509004070990e-09  -5.0445264600734579e-09  4.4465684394371869e-10  3.2036213690754887e-08  -9.2246868027889833e-08  2.6984721151178249e-08  4.9971833988631811e-07  -9.9738816935137567e-07  -1.5839644283768809e-06  6.5377703414344976e-06  7.2685885037130286e-06  -2.7674291876113563e-05  -7.1037487054078578e-05  -6.3685999843536616e-05  -1.7062013985642482e-05  8.6838566971983666e-06  3.9620252408479312e-06  -1.7488242542316286e-06  -4.3141672701299335e-07  3.8605537765812408e-07  -4.1041519379093943e-08  -4.6145544370296105e-08  2.3897084644675730e-08  -3.3095335072386606e-09  -1.9044573346038203e-09  1.3804092564770252e-09  -4.4550981725687172e-10  5.5702063779935417e-11  2.5910463520646079e-11  -2.1503437180610140e-11  9.4078718373210344e-12  -3.1228449552904619e-12  8.5530974490460638e-13  -1.9836216787177818e-13  3.8816585742099460e-14  -6.1553710740257010e-15  6.8051658080734558e-16  -6.6330635686168756e-18  -2.3413327376648214e-17  0.0000000000000000e+00  0.0000000000000000e+00  3.1903361375950309e-10  -9.8539359781286046e-09  3.5797870356495639e-08  -5.8427018003302433e-08  -5.1280452975580909e-08  5.2525948260623361e-07  -9.9738816935137610e-07  -1.0760472584997940e-06  7.6630137237318365e-06  -3.0913478468753561e-06  -3.9473432781808525e-05  1.5063356000021742e-05  2.0143113814102964e-04  2.9561191304591111e-04  1.5886511537899911e-04  -7.0855055624306796e-06  -3.1532770553477710e-05  1.8597714107861550e-06  5.1937672018901182e-06  -1.4265221673986398e-06  -4.2274972137501663e-07  3.6469682693437232e-07  -7.8637394271759422e-08  -1.9207865821772611e-08  1.9995614489053737e-08  -7.2373295084185138e-09  1.1029862341514802e-09  3.3291251459154470e-10  -3.2329644078354624e-10  1.4643356724308339e-10  -4.9231096312126206e-11  1.3521389278455308e-11  -3.1228449552904490e-12  6.0432309005926719e-13  -9.3724695059566115e-14  9.7807121366064465e-15  6.7870396633816474e-17  -3.5521588514809629e-16  1.0587268208348261e-16  0.0000000000000000e+00  0.0000000000000000e+00  -9.6251290396572619e-09  1.4692921977649240e-08  1.3594896782543955e-08  -1.6142428177738520e-07  4.9765322452081097e-07  -5.6427149794317604e-07  -1.5839644283768802e-06  7.6630137237318416e-06  -6.8456226933656635e-06  -3.3681183059583298e-05  7.7688230074192830e-05  1.4101867635411350e-04  -3.6649935436595049e-04  -1.0820285483441169e-03  -9.7625167495930234e-04  -2.2492484325831887e-04  1.4666669051124925e-04  4.3255806937646265e-05  -3.0056766226731418e-05  -8.8374532228973787e-07  5.0166046816856909e-06  -1.5951527700300773e-06  -1.1249819431353177e-07  2.7822518141303292e-07  -1.1613059789482301e-07  2.1082215877059050e-08  3.9425248450861270e-09  -4.8255051024662993e-09  2.2784950759154892e-09  -7.7736691881726987e-10  2.1417206125242824e-10  -4.9231096312126439e-11  9.4078718373210521e-12  -1.4225710505499714e-12  1.3861072664128609e-13  4.1721204944420209e-15  -5.9036710328904902e-15  1.6637327012327950e-15  -2.8251279859102586e-16  0.0000000000000000e+00  0.0000000000000000e+00  -1.9205660174013685e-08  6.2973683167829209e-08  -1.4561654560158232e-07  1.7550670166243745e-07  3.4264076330748547e-07  -2.5659053107570605e-06  6.5377703414345078e-06  -3.0913478468753735e-06  -3.3681183059583298e-05  9.3446506653449337e-05  4.2103993399138740e-05  -5.7902963250168894e-04  3.6332122642566504e-06  2.9417798486567680e-03  4.5827820673188489e-03  2.3473953603424642e-03  -2.4772819886010830e-04  -4.4341253480418316e-04  8.2001786030695762e-05  5.6407051494305894e-05  -2.8827402577882614e-05  1.5020803953123541e-06  3.6173274756287630e-06  -1.8313174956933164e-06  3.9267881313573949e-07  3.9304754770650647e-08  -7.1301747302775455e-08  3.5432866241701772e-08  -1.2298089724033786e-08  3.4002280613235403e-09  -7.7736691881726894e-10  1.4643356724308372e-10  -2.1503437180610108e-11  1.9239860907594538e-12  1.1643179221864707e-13  -9.8799659194382405e-14  2.5813852339479951e-14  -4.4162940691516242e-15  3.7904844402926337e-16  0.0000000000000000e+00  0.0000000000000000e+00  -1.6928902774807511e-08  8.2211578452200397e-08  -3.0989363776208315e-07  9.3256414256882945e-07  -2.0268150670990858e-06  1.8664364484582845e-06  7.2685885037130269e-06  -3.9473432781808566e-05  7.7688230074192912e-05  4.2103993399138645e-05  -5.8138725008448160e-04  7.3560842493962657e-04  2.5712797430877186e-03  -4.5937586221419056e-03  -1.6580502585237626e-02  -1.5065046023985465e-02  -2.7635384415150921e-03  2.4325236779837761e-03  3.2626654256110311e-04  -4.5703490167926374e-04  7.7447546723857409e-05  4.1145364302624864e-05  -2.8119269038428003e-05  7.1612828223108485e-06  2.1413240424289687e-07  -1.0382289112664050e-06  5.5048203936813145e-07  -1.9500284205287619e-07  5.4133672412385887e-08  -1.2298089724033790e-08  2.2784950759154871e-09  -3.2329644078354722e-10  2.5910463520646160e-11  2.6665198264044971e-12  -1.6439017986080910e-12  3.9970998336153347e-13  -6.3700728333345132e-14  5.4828452388174048e-15  5.9209637424585801e-16  0.0000000000000000e+00  0.0000000000000000e+00  -5.8349091950583674e-09  4.8149006171187733e-08  -2.7470034429151499e-07  1.2569503137420282e-06  -4.6845518681466497e-06  1.3725224707381666e-05  -2.7674291876113600e-05  1.5063356000021823e-05  1.4101867635411356e-04  -5.7902963250168948e-04  7.3560842493962744e-04  1.9558813722863793e-03  -7.8097694598339411e-03  -3.8428445437663715e-03  4.2573148466385921e-02  7.1858683862047606e-02  3.4399122549704141e-02  -6.3078459429671569e-03  -5.7264422449770499e-03  2.0055444264928156e-03  3.2335621199248261e-04  -4.1266613132113551e-04  1.2799847308900007e-04  -3.9369281390102771e-06  -1.4781197547349157e-05  8.5383280602006839e-06  -3.1006977170102210e-06  8.6481944539969514e-07  -1.9500284205287648e-07  3.5432866241701838e-08  -4.8255051024663125e-09  3.3291251459154801e-10  5.5702063779934945e-11  -2.7167248462355330e-11  6.1317354730856554e-12  -8.9827224609615458e-13  6.0877308873780034e-14  1.1520646475251642e-14  -5.0447140346332972e-15  0.0000000000000000e+00  0.0000000000000000e+00  1.5791373279002548e-09  3.8943807712051718e-09  -8.9146599557588143e-08  7.2007721849613361e-07  -4.1752297565071138e-06  1.9220166998896674e-05  -7.1037487054078605e-05  2.0143113814102980e-04  -3.6649935436595114e-04  3.6332122642567939e-06  2.5712797430877208e-03  -7.8097694598339446e-03  2.3352656593868234e-03  4.4131185905179351e-02  -5.1124853236139182e-02  -2.5625507898413685e-01  -2.3467722427822205e-01  -2.8724356923566563e-02  3.9058133965104096e-02  -1.4163331601793853e-03  -5.5420379606992073e-03  2.2336556395248317e-03  -1.9630184128018214e-04  -2.0270257492191189e-04  1.3206756531038261e-04  -4.9476958539275485e-05  1.3876470100783183e-05  -3.1006977170102117e-06  5.5048203936812986e-07  -7.1301747302775204e-08  3.9425248450860914e-09  1.1029862341514854e-09  -4.4550981725687059e-10  9.2838275429166161e-11  -1.2265339604365067e-11  5.2277832639320728e-13  2.3967988575380712e-13  -8.2829844734638445e-14  1.4063344421779170e-14  0.0000000000000000e+00  0.0000000000000000e+00  1.5998311439296906e-09  -9.3338440852237693e-09  2.9291030014694947e-08  3.3222766680449973e-08  -1.2471950555318639e-06  1.0707213421178670e-05  -6.3685999843536616e-05  2.9561191304591111e-04  -1.0820285483441171e-03  2.9417798486567719e-03  -4.5937586221419125e-03  -3.8428445437663763e-03  4.4131185905179407e-02  -8.6711255111703911e-02  -1.2710971166460777e-01  6.0448758893780263e-01  1.1468800654896096e+00  4.9495516915300997e-01  -1.4284344408749314e-01  -5.9378674799740461e-02  3.7535724523052323e-02  -5.6043832249721374e-03  -2.5906012423599725e-03  2.0327336134838619e-03  -7.9308425166069760e-04  2.2392706162862447e-04  -4.9476958539275702e-05  8.5383280602006975e-06  -1.0382289112664105e-06  3.9304754770651779e-08  2.1082215877058808e-08  -7.2373295084184956e-09  1.3804092564770173e-09  -1.5937018792197070e-10  1.1109060417622623e-12  4.6455424287745344e-12  -1.3011009807571899e-12  2.0769827980095136e-13  -1.2731950856027458e-14  0.0000000000000000e+00  0.0000000000000000e+00  -1.5185340783481844e-10  -2.1216032406461316e-09  2.3860258945160979e-08  -1.4299998898445341e-07  5.0742525959855874e-07  5.2303781136825172e-08  -1.7062013985642448e-05  1.5886511537899900e-04  -9.7625167495930202e-04  4.5827820673188472e-03  -1.6580502585237644e-02  4.2573148466385970e-02  -5.1124853236139287e-02  -1.2710971166460794e-01  6.8931595559753123e-01  -3.8750816361964574e-01  -4.0130660889477925e+00  -3.7087993833311179e+00  -1.4296590565120545e-01  5.8120757375187060e-01  -1.3590965958712573e-01  -2.8060588015539269e-02  3.0996218119991099e-02  -1.2790594703487758e-02  3.6416454160163839e-03  -7.9308425166069619e-04  1.3206756531038293e-04  -1.4781197547349138e-05  2.1413240424289634e-07  3.9267881313573944e-07  -1.1613059789482288e-07  1.9995614489053777e-08  -1.9044573346038174e-09  -9.6824041035725822e-11  8.4647002334477991e-11  -1.9764327124560480e-11  2.6834113653122664e-12  -1.0308232501152439e-13  -5.6040609817033095e-14  0.0000000000000000e+00  0.0000000000000000e+00  -3.0663841664979608e-10  1.7329010539143374e-09  -4.2398579420116104e-09  -2.0222633111317894e-08  3.1791182002069302e-07  -2.1492852953655943e-06  8.6838566971983700e-06  -7.0855055624307313e-06  -2.2492484325831855e-04  2.3473953603424607e-03  -1.5065046023985453e-02  7.1858683862047579e-02  -2.5625507898413674e-01  6.0448758893780297e-01  -3.8750816361964530e-01  -3.1335437150937357e+00  8.1758817447378469e+00  1.8885816240044274e+01  6.7829749283364986e+00  -3.0271673109973007e+00  -1.4968800276964458e-01  4.6338092520790330e-01  -2.0808213336827466e-01  5.9885728140398164e-02  -1.2790594703487757e-02  2.0327336134838602e-03  -2.0270257492191265e-04  -3.9369281390101678e-06  7.1612828223108222e-06  -1.8313174956933092e-06  2.7822518141303133e-07  -1.9207865821772432e-08  -3.3095335072386932e-09  1.4620321848552100e-09  -2.8621224006235901e-10  3.0969544750421999e-11  5.8964010793071737e-13  -1.1065157717590650e-12  2.5526814419671789e-13  0.0000000000000000e+00  0.0000000000000000e+00  5.1373718980457529e-11  2.9317838578857848e-10  -4.2698274650075295e-09  2.7001855405689788e-08  -9.1841357948815821e-08  -1.0131404351983456e-07  3.9620252408479295e-06  -3.1532770553477703e-05  1.4666669051124930e-04  -2.4772819886010862e-04  -2.7635384415150891e-03  3.4399122549704134e-02  -2.3467722427822210e-01  1.1468800654896103e+00  -4.0130660889477943e+00  8.1758817447378487e+00  3.3785268334068528e+00  -6.4313089385503304e+01  -6.0096988167236212e+01  5.2468588114369110e+00  6.5817171375217356e+00  -3.4306774561824969e+00  1.0020313322406331e+00  -2.0808213336827505e-01  3.0996218119991179e-02  -2.5906012423599876e-03  -1.9630184128018008e-04  1.2799847308899950e-04  -2.8119269038427942e-05  3.6173274756287550e-06  -1.1249819431353128e-07  -7.8637394271759633e-08  2.3897084644675703e-08  -3.8606592877130025e-09  2.8345256705821374e-10  4.3174690188989946e-11  -1.9834746423761953e-11  3.8253865614176206e-12  -3.4173095602430439e-13  0.0000000000000000e+00  0.0000000000000000e+00  4.7195853451796059e-11  -3.4713090807326132e-10  1.2600897878041145e-09  8.1263536377902913e-10  -4.8955949474288408e-08  3.9348737179877865e-07  -1.7488242542316322e-06  1.8597714107861715e-06  4.3255806937646204e-05  -4.4341253480418327e-04  2.4325236779837779e-03  -6.3078459429671734e-03  -2.8724356923566469e-02  4.9495516915300947e-01  -3.7087993833311175e+00  1.8885816240044289e+01  -6.4313089385503304e+01  9.1363142317728673e+01  3.3349564298731678e+02  7.6131735622101630e+01  -5.7895369217278557e+01  1.7289068018214252e+01  -3.4306774561824849e+00  4.6338092520790181e-01  -2.8060588015539085e-02  -5.6043832249721400e-03  2.2336556395248352e-03  -4.1266613132113410e-04  4.1145364302624640e-05  1.5020803953123937e-06  -1.5951527700300809e-06  3.6469682693437385e-07  -4.6145544370296138e-08  9.5224529025414711e-10  1.1397981018042897e-09  -3.2178012154285952e-10  4.8360109578986950e-11  -2.6522282812044884e-12  -7.8384107403927751e-13  0.0000000000000000e+00  0.0000000000000000e+00  -1.8352627083450647e-11  1.5847898565974282e-11  5.0524487058575067e-10  -4.8048220925952357e-09  2.4030360620867930e-08  -4.4085784162615859e-08  -4.3141672701299308e-07  5.1937672018901224e-06  -3.0056766226731459e-05  8.2001786030695925e-05  3.2626654256110251e-04  -5.7264422449770517e-03  3.9058133965104110e-02  -1.4284344408749330e-01  -1.4296590565120382e-01  6.7829749283364933e+00  -6.0096988167236177e+01  3.3349564298731673e+02  -1.0847351118054260e+03  -1.0286631403250301e+03  3.1955229367122138e+02  -5.7895369217278812e+01  6.5817171375217578e+00  -1.4968800276965025e-01  -1.3590965958712461e-01  3.7535724523052094e-02  -5.5420379606991900e-03  3.2335621199247757e-04  7.7447546723858059e-05  -2.8827402577882689e-05  5.0166046816856951e-06  -4.2274972137501795e-07  -4.1041519379093897e-08  2.2998627452469290e-08  -4.633081060407603