<?xml version="1.0"?>
<VTKFile type="UnstructuredGrid"  version="0.1"  >
<UnstructuredGrid>
<Piece  NumberOfPoints="1681" NumberOfCells="3200">
<Points>
<DataArray  type="Float64"  NumberOfComponents="3"  format="ascii">-2 -2 0  -1.9 -2 0  -1.8 -2 0  -1.7 -2 0  -1.6 -2 0  -1.5 -2 0  -1.4 -2 0  -1.3 -2 0  -1.2 -2 0  -1.1 -2 0  -1 -2 0  -0.8999999999999999 -2 0  -0.8 -2 0  -0.7 -2 0  -0.6000000000000001 -2 0  -0.5 -2 0  -0.3999999999999999 -2 0  -0.3 -2 0  -0.2 -2 0  -0.1000000000000001 -2 0  0 -2 0  0.1000000000000001 -2 0  0.2000000000000002 -2 0  0.2999999999999998 -2 0  0.3999999999999999 -2 0  0.5 -2 0  0.6000000000000001 -2 0  0.7000000000000002 -2 0  0.7999999999999998 -2 0  0.8999999999999999 -2 0  1 -2 0  1.1 -2 0  1.2 -2 0  1.3 -2 0  1.4 -2 0  1.5 -2 0  1.6 -2 0  1.7 -2 0  1.8 -2 0  1.9 -2 0  2 -2 0  -2 -1.9 0  -1.9 -1.9 0  -1.8 -1.9 0  -1.7 -1.9 0  -1.6 -1.9 0  -1.5 -1.9 0  -1.4 -1.9 0  -1.3 -1.9 0  -1.2 -1.9 0  -1.1 -1.9 0  -1 -1.9 0  -0.8999999999999999 -1.9 0  -0.8 -1.9 0  -0.7 -1.9 0  -0.6000000000000001 -1.9 0  -0.5 -1.9 0  -0.3999999999999999 -1.9 0  -0.3 -1.9 0  -0.2 -1.9 0  -0.1000000000000001 -1.9 0  0 -1.9 0  0.1000000000000001 -1.9 0  0.2000000000000002 -1.9 0  0.2999999999999998 -1.9 0  0.3999999999999999 -1.9 0  0.5 -1.9 0  0.6000000000000001 -1.9 0  0.7000000000000002 -1.9 0  0.7999999999999998 -1.9 0  0.8999999999999999 -1.9 0  1 -1.9 0  1.1 -1.9 0  1.2 -1.9 0  1.3 -1.9 0  1.4 -1.9 0  1.5 -1.9 0  1.6 -1.9 0  1.7 -1.9 0  1.8 -1.9 0  1.9 -1.9 0  2 -1.9 0  -2 -1.8 0  -1.9 -1.8 0  -1.8 -1.8 0  -1.7 -1.8 0  -1.6 -1.8 0  -1.5 -1.8 0  -1.4 -1.8 0  -1.3 -1.8 0  -1.2 -1.8 0  -1.1 -1.8 0  -1 -1.8 0  -0.8999999999999999 -1.8 0  -0.8 -1.8 0  -0.7 -1.8 0  -0.6000000000000001 -1.8 0  -0.5 -1.8 0  -0.3999999999999999 -1.8 0  -0.3 -1.8 0  -0.2 -1.8 0  -0.1000000000000001 -1.8 0  0 -1.8 0  0.1000000000000001 -1.8 0  0.2000000000000002 -1.8 0  0.2999999999999998 -1.8 0  0.3999999999999999 -1.8 0  0.5 -1.8 0  0.6000000000000001 -1.8 0  0.7000000000000002 -1.8 0  0.7999999999999998 -1.8 0  0.8999999999999999 -1.8 0  1 -1.8 0  1.1 -1.8 0  1.2 -1.8 0  1.3 -1.8 0  1.4 -1.8 0  1.5 -1.8 0  1.6 -1.8 0  1.7 -1.8 0  1.8 -1.8 0  1.9 -1.8 0  2 -1.8 0  -2 -1.7 0  -1.9 -1.7 0  -1.8 -1.7 0  -1.7 -1.7 0  -1.6 -1.7 0  -1.5 -1.7 0  -1.4 -1.7 0  -1.3 -1.7 0  -1.2 -1.7 0  -1.1 -1.7 0  -1 -1.7 0  -0.8999999999999999 -1.7 0  -0.8 -1.7 0  -0.7 -1.7 0  -0.6000000000000001 -1.7 0  -0.5 -1.7 0  -0.3999999999999999 -1.7 0  -0.3 -1.7 0  -0.2 -1.7 0  -0.1000000000000001 -1.7 0  0 -1.7 0  0.1000000000000001 -1.7 0  0.2000000000000002 -1.7 0  0.2999999999999998 -1.7 0  0.3999999999999999 -1.7 0  0.5 -1.7 0  0.6000000000000001 -1.7 0  0.7000000000000002 -1.7 0  0.7999999999999998 -1.7 0  0.8999999999999999 -1.7 0  1 -1.7 0  1.1 -1.7 0  1.2 -1.7 0  1.3 -1.7 0  1.4 -1.7 0  1.5 -1.7 0  1.6 -1.7 0  1.7 -1.7 0  1.8 -1.7 0  1.9 -1.7 0  2 -1.7 0  -2 -1.6 0  -1.9 -1.6 0  -1.8 -1.6 0  -1.7 -1.6 0  -1.6 -1.6 0  -1.5 -1.6 0  -1.4 -1.6 0  -1.3 -1.6 0  -1.2 -1.6 0  -1.1 -1.6 0  -1 -1.6 0  -0.8999999999999999 -1.6 0  -0.8 -1.6 0  -0.7 -1.6 0  -0.6000000000000001 -1.6 0  -0.5 -1.6 0  -0.3999999999999999 -1.6 0  -0.3 -1.6 0  -0.2 -1.6 0  -0.1000000000000001 -1.6 0  0 -1.6 0  0.1000000000000001 -1.6 0  0.2000000000000002 -1.6 0  0.2999999999999998 -1.6 0  0.3999999999999999 -1.6 0  0.5 -1.6 0  0.6000000000000001 -1.6 0  0.7000000000000002 -1.6 0  0.7999999999999998 -1.6 0  0.8999999999999999 -1.6 0  1 -1.6 0  1.1 -1.6 0  1.2 -1.6 0  1.3 -1.6 0  1.4 -1.6 0  1.5 -1.6 0  1.6 -1.6 0  1.7 -1.6 0  1.8 -1.6 0  1.9 -1.6 0  2 -1.6 0  -2 -1.5 0  -1.9 -1.5 0  -1.8 -1.5 0  -1.7 -1.5 0  -1.6 -1.5 0  -1.5 -1.5 0  -1.4 -1.5 0  -1.3 -1.5 0  -1.2 -1.5 0  -1.1 -1.5 0  -1 -1.5 0  -0.8999999999999999 -1.5 0  -0.8 -1.5 0  -0.7 -1.5 0  -0.6000000000000001 -1.5 0  -0.5 -1.5 0  -0.3999999999999999 -1.5 0  -0.3 -1.5 0  -0.2 -1.5 0  -0.1000000000000001 -1.5 0  0 -1.5 0  0.1000000000000001 -1.5 0  0.2000000000000002 -1.5 0  0.2999999999999998 -1.5 0  0.3999999999999999 -1.5 0  0.5 -1.5 0  0.6000000000000001 -1.5 0  0.7000000000000002 -1.5 0  0.7999999999999998 -1.5 0  0.8999999999999999 -1.5 0  1 -1.5 0  1.1 -1.5 0  1.2 -1.5 0  1.3 -1.5 0  1.4 -1.5 0  1.5 -1.5 0  1.6 -1.5 0  1.7 -1.5 0  1.8 -1.5 0  1.9 -1.5 0  2 -1.5 0  -2 -1.4 0  -1.9 -1.4 0  -1.8 -1.4 0  -1.7 -1.4 0  -1.6 -1.4 0  -1.5 -1.4 0  -1.4 -1.4 0  -1.3 -1.4 0  -1.2 -1.4 0  -1.1 -1.4 0  -1 -1.4 0  -0.8999999999999999 -1.4 0  -0.8 -1.4 0  -0.7 -1.4 0  -0.6000000000000001 -1.4 0  -0.5 -1.4 0  -0.3999999999999999 -1.4 0  -0.3 -1.4 0  -0.2 -1.4 0  -0.1000000000000001 -1.4 0  0 -1.4 0  0.1000000000000001 -1.4 0  0.2000000000000002 -1.4 0  0.2999999999999998 -1.4 0  0.3999999999999999 -1.4 0  0.5 -1.4 0  0.6000000000000001 -1.4 0  0.7000000000000002 -1.4 0  0.7999999999999998 -1.4 0  0.8999999999999999 -1.4 0  1 -1.4 0  1.1 -1.4 0  1.2 -1.4 0  1.3 -1.4 0  1.4 -1.4 0  1.5 -1.4 0  1.6 -1.4 0  1.7 -1.4 0  1.8 -1.4 0  1.9 -1.4 0  2 -1.4 0  -2 -1.3 0  -1.9 -1.3 0  -1.8 -1.3 0  -1.7 -1.3 0  -1.6 -1.3 0  -1.5 -1.3 0  -1.4 -1.3 0  -1.3 -1.3 0  -1.2 -1.3 0  -1.1 -1.3 0  -1 -1.3 0  -0.8999999999999999 -1.3 0  -0.8 -1.3 0  -0.7 -1.3 0  -0.6000000000000001 -1.3 0  -0.5 -1.3 0  -0.3999999999999999 -1.3 0  -0.3 -1.3 0  -0.2 -1.3 0  -0.1000000000000001 -1.3 0  0 -1.3 0  0.1000000000000001 -1.3 0  0.2000000000000002 -1.3 0  0.2999999999999998 -1.3 0  0.3999999999999999 -1.3 0  0.5 -1.3 0  0.6000000000000001 -1.3 0  0.7000000000000002 -1.3 0  0.7999999999999998 -1.3 0  0.8999999999999999 -1.3 0  1 -1.3 0  1.1 -1.3 0  1.2 -1.3 0  1.3 -1.3 0  1.4 -1.3 0  1.5 -1.3 0  1.6 -1.3 0  1.7 -1.3 0  1.8 -1.3 0  1.9 -1.3 0  2 -1.3 0  -2 -1.2 0  -1.9 -1.2 0  -1.8 -1.2 0  -1.7 -1.2 0  -1.6 -1.2 0  -1.5 -1.2 0  -1.4 -1.2 0  -1.3 -1.2 0  -1.2 -1.2 0  -1.1 -1.2 0  -1 -1.2 0  -0.8999999999999999 -1.2 0  -0.8 -1.2 0  -0.7 -1.2 0  -0.6000000000000001 -1.2 0  -0.5 -1.2 0  -0.3999999999999999 -1.2 0  -0.3 -1.2 0  -0.2 -1.2 0  -0.1000000000000001 -1.2 0  0 -1.2 0  0.1000000000000001 -1.2 0  0.2000000000000002 -1.2 0  0.2999999999999998 -1.2 0  0.3999999999999999 -1.2 0  0.5 -1.2 0  0.6000000000000001 -1.2 0  0.7000000000000002 -1.2 0  0.7999999999999998 -1.2 0  0.8999999999999999 -1.2 0  1 -1.2 0  1.1 -1.2 0  1.2 -1.2 0  1.3 -1.2 0  1.4 -1.2 0  1.5 -1.2 0  1.6 -1.2 0  1.7 -1.2 0  1.8 -1.2 0  1.9 -1.2 0  2 -1.2 0  -2 -1.1 0  -1.9 -1.1 0  -1.8 -1.1 0  -1.7 -1.1 0  -1.6 -1.1 0  -1.5 -1.1 0  -1.4 -1.1 0  -1.3 -1.1 0  -1.2 -1.1 0  -1.1 -1.1 0  -1 -1.1 0  -0.8999999999999999 -1.1 0  -0.8 -1.1 0  -0.7 -1.1 0  -0.6000000000000001 -1.1 0  -0.5 -1.1 0  -0.3999999999999999 -1.1 0  -0.3 -1.1 0  -0.2 -1.1 0  -0.1000000000000001 -1.1 0  0 -1.1 0  0.1000000000000001 -1.1 0  0.2000000000000002 -1.1 0  0.2999999999999998 -1.1 0  0.3999999999999999 -1.1 0  0.5 -1.1 0  0.6000000000000001 -1.1 0  0.7000000000000002 -1.1 0  0.7999999999999998 -1.1 0  0.8999999999999999 -1.1 0  1 -1.1 0  1.1 -1.1 0  1.2 -1.1 0  1.3 -1.1 0  1.4 -1.1 0  1.5 -1.1 0  1.6 -1.1 0  1.7 -1.1 0  1.8 -1.1 0  1.9 -1.1 0  2 -1.1 0  -2 -1 0  -1.9 -1 0  -1.8 -1 0  -1.7 -1 0  -1.6 -1 0  -1.5 -1 0  -1.4 -1 0  -1.3 -1 0  -1.2 -1 0  -1.1 -1 0  -1 -1 0  -0.8999999999999999 -1 0  -0.8 -1 0  -0.7 -1 0  -0.6000000000000001 -1 0  -0.5 -1 0  -0.3999999999999999 -1 0  -0.3 -1 0  -0.2 -1 0  -0.1000000000000001 -1 0  0 -1 0  0.1000000000000001 -1 0  0.2000000000000002 -1 0  0.2999999999999998 -1 0  0.3999999999999999 -1 0  0.5 -1 0  0.6000000000000001 -1 0  0.7000000000000002 -1 0  0.7999999999999998 -1 0  0.8999999999999999 -1 0  1 -1 0  1.1 -1 0  1.2 -1 0  1.3 -1 0  1.4 -1 0  1.5 -1 0  1.6 -1 0  1.7 -1 0  1.8 -1 0  1.9 -1 0  2 -1 0  -2 -0.8999999999999999 0  -1.9 -0.8999999999999999 0  -1.8 -0.8999999999999999 0  -1.7 -0.8999999999999999 0  -1.6 -0.8999999999999999 0  -1.5 -0.8999999999999999 0  -1.4 -0.8999999999999999 0  -1.3 -0.8999999999999999 0  -1.2 -0.8999999999999999 0  -1.1 -0.8999999999999999 0  -1 -0.8999999999999999 0  -0.8999999999999999 -0.8999999999999999 0  -0.8 -0.8999999999999999 0  -0.7 -0.8999999999999999 0  -0.6000000000000001 -0.8999999999999999 0  -0.5 -0.8999999999999999 0  -0.3999999999999999 -0.8999999999999999 0  -0.3 -0.8999999999999999 0  -0.2 -0.8999999999999999 0  -0.1000000000000001 -0.8999999999999999 0  0 -0.8999999999999999 0  0.1000000000000001 -0.8999999999999999 0  0.2000000000000002 -0.8999999999999999 0  0.2999999999999998 -0.8999999999999999 0  0.3999999999999999 -0.8999999999999999 0  0.5 -0.8999999999999999 0  0.6000000000000001 -0.8999999999999999 0  0.7000000000000002 -0.8999999999999999 0  0.7999999999999998 -0.8999999999999999 0  0.8999999999999999 -0.8999999999999999 0  1 -0.8999999999999999 0  1.1 -0.8999999999999999 0  1.2 -0.8999999999999999 0  1.3 -0.8999999999999999 0  1.4 -0.8999999999999999 0  1.5 -0.8999999999999999 0  1.6 -0.8999999999999999 0  1.7 -0.8999999999999999 0  1.8 -0.8999999999999999 0  1.9 -0.8999999999999999 0  2 -0.8999999999999999 0  -2 -0.8 0  -1.9 -0.8 0  -1.8 -0.8 0  -1.7 -0.8 0  -1.6 -0.8 0  -1.5 -0.8 0  -1.4 -0.8 0  -1.3 -0.8 0  -1.2 -0.8 0  -1.1 -0.8 0  -1 -0.8 0  -0.8999999999999999 -0.8 0  -0.8 -0.8 0  -0.7 -0.8 0  -0.6000000000000001 -0.8 0  -0.5 -0.8 0  -0.3999999999999999 -0.8 0  -0.3 -0.8 0  -0.2 -0.8 0  -0.1000000000000001 -0.8 0  0 -0.8 0  0.1000000000000001 -0.8 0  0.2000000000000002 -0.8 0  0.2999999999999998 -0.8 0  0.3999999999999999 -0.8 0  0.5 -0.8 0  0.6000000000000001 -0.8 0  0.7000000000000002 -0.8 0  0.7999999999999998 -0.8 0  0.8999999999999999 -0.8 0  1 -0.8 0  1.1 -0.8 0  1.2 -0.8 0  1.3 -0.8 0  1.4 -0.8 0  1.5 -0.8 0  1.6 -0.8 0  1.7 -0.8 0  1.8 -0.8 0  1.9 -0.8 0  2 -0.8 0  -2 -0.7 0  -1.9 -0.7 0  -1.8 -0.7 0  -1.7 -0.7 0  -1.6 -0.7 0  -1.5 -0.7 0  -1.4 -0.7 0  -1.3 -0.7 0  -1.2 -0.7 0  -1.1 -0.7 0  -1 -0.7 0  -0.8999999999999999 -0.7 0  -0.8 -0.7 0  -0.7 -0.7 0  -0.6000000000000001 -0.7 0  -0.5 -0.7 0  -0.3999999999999999 -0.7 0  -0.3 -0.7 0  -0.2 -0.7 0  -0.1000000000000001 -0.7 0  0 -0.7 0  0.1000000000000001 -0.7 0  0.2000000000000002 -0.7 0  0.2999999999999998 -0.7 0  0.3999999999999999 -0.7 0  0.5 -0.7 0  0.600000000000000
[...]
<PointData  Scalars="f_1726"> 
<DataArray  type="Float64"  Name="f_1726"  format="ascii">0.0000000000000000e+00  0.0000000000000000e+00  0.0000000000000000e+00  0.0000000000000000e+00  0.0000000000000000e+00  0.0000000000000000e+00  0.0000000000000000e+00  0.0000000000000000e+00  0.0000000000000000e+00  0.0000000000000000e+00  0.0000000000000000e+00  0.0000000000000000e+00  0.0000000000000000e+00  0.0000000000000000e+00  0.0000000000000000e+00  0.0000000000000000e+00  0.0000000000000000e+00  0.0000000000000000e+00  0.0000000000000000e+00  0.0000000000000000e+00  0.0000000000000000e+00  0.0000000000000000e+00  0.0000000000000000e+00  0.0000000000000000e+00  0.0000000000000000e+00  0.0000000000000000e+00  0.0000000000000000e+00  0.0000000000000000e+00  0.0000000000000000e+00  0.0000000000000000e+00  0.0000000000000000e+00  0.0000000000000000e+00  0.0000000000000000e+00  0.0000000000000000e+00  0.0000000000000000e+00  0.0000000000000000e+00  0.0000000000000000e+00  0.0000000000000000e+00  0.0000000000000000e+00  0.0000000000000000e+00  0.0000000000000000e+00  0.0000000000000000e+00  -1.2682204285563089e-11  -1.4779323730870222e-11  9.7119140118827963e-11  -2.3402959128356378e-11  -4.9187452236832061e-10  2.6500762580041410e-10  2.4201631262605490e-09  3.3297241660636861e-10  -1.0045657693294774e-08  -2.0044768967456466e-08  -1.7668538437053555e-08  -6.0898404793855986e-09  1.6481309477961066e-09  1.6697288911943967e-09  -1.5848798996706131e-10  -3.2003566462184739e-10  5.3618272875391344e-11  4.9257873464991096e-11  -1.9154466261535035e-11  -3.4994608287093507e-12  4.1703096652380422e-12  -8.1808764155784097e-13  -3.5666142170960147e-13  2.6642098885503948e-13  -5.8489063453164476e-14  -1.3288218738733749e-14  1.4677781825263815e-14  -5.2651211369412175e-15  6.1796548104528950e-16  3.9560933699747889e-16  -2.9485598135121204e-16  1.1049833398592702e-16  -2.4436272107914679e-17  2.0231970431844990e-19  2.8651308206934082e-18  -1.7234855947227292e-18  7.0123337314959545e-19  -2.3245209086632411e-19  7.3685793509913155e-20  0.0000000000000000e+00  0.0000000000000000e+00  -1.4779323730870213e-11  1.0628697826553449e-10  -9.4552735442909550e-11  -4.6561616977415637e-10  9.7778651532848053e-10  1.8274626303536035e-09  -5.2649253671169962e-09  -1.0284461367745657e-08  1.5334866067105505e-08  6.5725047652196298e-08  8.5803460104641198e-08  5.0252670096702847e-08  4.0645290046178672e-09  -9.7416462944460532e-09  -2.2142975775912208e-09  1.8086127190865247e-09  3.0598755555070073e-10  -3.6229730145942401e-10  1.6540304394454478e-11  5.6795578000780361e-11  -1.9140378490647579e-11  -2.7681059991695306e-12  3.9925203893058446e-12  -1.1548602236421868e-12  -1.0758606425203975e-13  2.1677276364502878e-13  -8.6448738875563434e-14  1.2023991618086624e-14  5.7223946014164402e-15  -4.6092450614256892e-15  1.7364223524550879e-15  -3.7073551686591849e-16  -6.9228667785796918e-18  4.8885531996122179e-17  -2.7733155578062750e-17  1.0842091201769323e-17  -3.4284698940408387e-18  9.3132710856547169e-19  -2.3245209086632431e-19  0.0000000000000000e+00  0.0000000000000000e+00  9.7119140118828041e-11  -9.4552735442909666e-11  -4.2568990790237416e-10  1.2607050251548790e-09  6.9553204836427537e-10  -7.4791893816600736e-09  4.6408421402299787e-10  3.7361904476150786e-08  1.4188867379379555e-08  -1.5197863483871118e-07  -3.2343310863275778e-07  -2.8670219543166251e-07  -9.3041477157032009e-08  3.0570775705894005e-08  2.4902730430822081e-08  -4.4251003158667697e-09  -4.4563792283892005e-09  1.3151439964016670e-09  5.2731937413882268e-10  -3.4706782524513735e-10  1.4137868261698070e-11  5.0472996760781983e-11  -2.0701340437666472e-11  6.1540189872824199e-13  2.8006514941418066e-12  -1.3579469972032971e-12  2.5015166844313427e-13  6.3537081291613391e-14  -6.6483857932063397e-14  2.6941677693799071e-14  -6.1616065702481237e-15  7.0835701971603222e-17  7.1024882858561368e-16  -4.2117408376068478e-16  1.6721576911226567e-16  -5.3389675003499523e-17  1.4467813512694428e-17  -3.4284698940408233e-18  7.0123337314959323e-19  0.0000000000000000e+00  0.0000000000000000e+00  -2.3402959128356262e-11  -4.6561616977415678e-10  1.2607050251548802e-09  2.3659981605577807e-10  -7.6605630316461663e-09  8.7231830804229794e-09  3.3435898386462312e-08  -6.0979735490595275e-08  -1.6847702211993606e-07  1.8317471282887188e-07  9.7330852549494885e-07  1.3118673565109456e-06  7.5153789834381138e-07  3.4674292710353630e-08  -1.4924775902369592e-07  -2.1106174167263245e-08  2.8181585449067388e-08  8.4813997405701226e-10  -5.0147481473257033e-09  1.0443304533513018e-09  5.1420901056576399e-10  -3.3583892124541052e-10  4.5061022752593510e-11  3.2322625930321234e-11  -2.0627844469782401e-11  4.8485094430285141e-12  5.4561887895549985e-13  -9.3751839196021553e-13  4.1717359350701457e-13  -1.0311628575488613e-13  4.3544033715977440e-15  1.0208038325115438e-14  -6.4243035631106995e-15  2.6021305532499632e-15  -8.3811800306167070e-16  2.2795643091861079e-16  -5.3389675003499782e-17  1.0842091201769336e-17  -1.7234855947227360e-18  0.0000000000000000e+00  0.0000000000000000e+00  -4.9187452236832134e-10  9.7778651532848074e-10  6.9553204836427661e-10  -7.6605630316461745e-09  1.1393423566234101e-08  2.5204664372774788e-08  -9.6277198536105826e-08  -5.3520932013201450e-08  5.1939604372082842e-07  3.5761097911252652e-07  -2.1153680421114369e-06  -4.8892232322281256e-06  -4.3576484795078206e-06  -1.3016858842122116e-06  5.2959502588028453e-07  3.3180161091055339e-07  -9.5853971436627505e-08  -5.1094869319949269e-08  2.5080263968312043e-08  2.7000625084682150e-09  -4.8355036287180309e-09  1.1895966820825918e-09  2.9583680896333263e-10  -2.9871705402091381e-10  8.8345289368293985e-11  1.1594423076280410e-12  -1.2801220913486206e-11  6.3996353061511748e-12  -1.7157250237547579e-12  1.2151877906532374e-13  1.4466672672336319e-13  -9.7819592869621283e-14  4.0512509658929499e-14  -1.3166037440638188e-14  3.5888562833787248e-15  -8.3811800306166932e-16  1.6721576911226604e-16  -2.7733155578062694e-17  2.8651308206934040e-18  0.0000000000000000e+00  0.0000000000000000e+00  2.6500762580041472e-10  1.8274626303536066e-09  -7.4791893816600785e-09  8.7231830804229843e-09  2.5204664372774828e-08  -1.0399990864319802e-07  2.8163702586931709e-08  5.4820843862756577e-07  -5.8892491633771167e-07  -2.6780115174632997e-06  1.9479823688855567e-06  1.4324889422866165e-05  2.0059909605716031e-05  1.1175019102086011e-05  5.4588970101152215e-08  -2.2431890807402193e-06  -1.0574052529898111e-07  4.1067911167095383e-07  -4.6011923062372238e-08  -5.7900521779583065e-08  2.4003453652538835e-08  9.9384955635730911e-10  -4.0293342058077102e-09  1.5259093987334483e-09  -1.0105435145013511e-10  -1.6633318346007330e-10  9.6894444942468633e-11  -2.8354204644640209e-11  2.7830219520254324e-12  2.0080463955128574e-12  -1.4847241797315764e-12  6.3072639066725206e-13  -2.0702875042293611e-13  5.6560926329652759e-14  -1.3166037440638188e-14  2.6021305532499597e-15  -4.2117408376068591e-16  4.8885531996122142e-17  2.0231970431843396e-19  0.0000000000000000e+00  0.0000000000000000e+00  2.4201631262605507e-09  -5.2649253671170028e-09  4.6408421402299612e-10  3.3435898386462332e-08  -9.6277198536105879e-08  2.8163702586931487e-08  5.2155138542830851e-07  -1.0409647595750698e-06  -1.6531689476857227e-06  6.8234101233166041e-06  7.5861582448269160e-06  -2.8883401141566969e-05  -7.4141164798611844e-05  -6.6468485944181746e-05  -1.7807465370259151e-05  9.0632605005352337e-06  4.1351289086893576e-06  -1.8252316152187470e-06  -4.5026562707656531e-07  4.0292240848204323e-07  -4.2834652210520789e-08  -4.8161675641415392e-08  2.4941165071034897e-08  -3.4541293525756966e-09  -1.9876644142732247e-09  1.4407203072383489e-09  -4.6497445433980491e-10  5.8135726101728159e-11  2.7042509885382393e-11  -2.2442937466672087e-11  9.8189083710695662e-12  -3.2592842465619080e-12  8.9267882889151604e-13  -2.0702875042293647e-13  4.0512509658929568e-14  -6.4243035631107074e-15  7.1024882858561674e-16  -6.9228667785799568e-18  -2.4436272107914626e-17  0.0000000000000000e+00  0.0000000000000000e+00  3.3297241660636846e-10  -1.0284461367745660e-08  3.7361904476150820e-08  -6.0979735490595301e-08  -5.3520932013201609e-08  5.4820843862756640e-07  -1.0409647595750691e-06  -1.1230605196210593e-06  7.9978161799658719e-06  -3.2264110073395496e-06  -4.1198054807528051e-05  1.5721484612308640e-05  2.1023180616055564e-04  3.0852740532453068e-04  1.6580604394266226e-04  -7.3950762811435115e-06  -3.2910459464626829e-05  1.9410261310324178e-06  5.4206865418510291e-06  -1.4888479236527707e-06  -4.4121995386987400e-07  3.8063068766337618e-07  -8.2073117304917194e-08  -2.0047070981516421e-08  2.0869236941811642e-08  -7.5535335220547539e-09  1.1511764780554671e-09  3.4745769637180421e-10  -3.3742148953960454e-10  1.5283135273004731e-10  -5.1382037516544121e-11  1.4112148280765811e-11  -3.2592842465618935e-12  6.3072639066724974e-13  -9.7819592869620879e-14  1.0208038325115365e-14  7.0835701971613083e-17  -3.7073551686591819e-16  1.1049833398592676e-16  0.0000000000000000e+00  0.0000000000000000e+00  -1.0045657693294776e-08  1.5334866067105512e-08  1.4188867379379548e-08  -1.6847702211993614e-07  5.1939604372082885e-07  -5.8892491633771114e-07  -1.6531689476857270e-06  7.9978161799658753e-06  -7.1447127609055757e-06  -3.5152737623330707e-05  8.1082483456352744e-05  1.4717988145179119e-04  -3.8251196878551002e-04  -1.1293031362231718e-03  -1.0189047968853053e-03  -2.3475196776910054e-04  1.5307466131767128e-04  4.5145683549019039e-05  -3.1369967471301488e-05  -9.2235677664112756e-07  5.2357836666041214e-06  -1.6648461158504889e-06  -1.1741331950264898e-07  2.9038103516477086e-07  -1.2120442534977102e-07  2.2003312708275235e-08  4.1147765269291062e-09  -5.0363348124369678e-09  2.3780441274291514e-09  -8.1133062594323914e-10  2.2352938915880457e-10  -5.1382037516544321e-11  9.8189083710695807e-12  -1.4847241797315831e-12  1.4466672672336437e-13  4.3544033715974947e-15  -6.1616065702480985e-15  1.7364223524550786e-15  -2.9485598135121101e-16  0.0000000000000000e+00  0.0000000000000000e+00  -2.0044768967456459e-08  6.5725047652196271e-08  -1.5197863483871118e-07  1.8317471282887199e-07  3.5761097911252673e-07  -2.6780115174633022e-06  6.8234101233166092e-06  -3.2264110073395314e-06  -3.5152737623330740e-05  9.7529250216490832e-05  4.3943546467357459e-05  -6.0432784416918008e-04  3.7919498620146188e-06  3.0703082781413558e-03  4.7830070372640223e-03  2.4499547137155522e-03  -2.5855161800653943e-04  -4.6278554014249367e-04  8.5584501704769525e-05  5.8871515224904108e-05  -3.0086892060464708e-05  1.5677073436569894e-06  3.7753710558056728e-06  -1.9113290443877511e-06  4.0983522651155736e-07  4.1022007135492099e-08  -7.4416970763333632e-08  3.6980953075005377e-08  -1.2835401908904572e-08  3.5487864154814455e-09  -8.1133062594323790e-10  1.5283135273004765e-10  -2.2442937466672058e-11  2.0080463955128558e-12  1.2151877906532485e-13  -1.0311628575488616e-13  2.6941677693799153e-14  -4.6092450614256860e-15  3.9560933699747904e-16  0.0000000000000000e+00  0.0000000000000000e+00  -1.7668538437053538e-08  8.5803460104641172e-08  -3.2343310863275778e-07  9.7330852549494864e-07  -2.1153680421114374e-06  1.9479823688855588e-06  7.5861582448269185e-06  -4.1198054807528098e-05  8.1082483456352717e-05  4.3943546467357635e-05  -6.0678846772143030e-04  7.6774767411433677e-04  2.6836207625203926e-03  -4.7944631654831668e-03  -1.7304916398296684e-02  -1.5723248474607317e-02  -2.8842793786285174e-03  2.5388023473947746e-03  3.4052135715162722e-04  -4.7700307780206241e-04  8.0831284481255040e-05  4.2943034191757538e-05  -2.9347819668895460e-05  7.4741643027747326e-06  2.2348799950665338e-07  -1.0835898622129874e-06  5.7453298662435294e-07  -2.0352265329759984e-07  5.6498810612844379e-08  -1.2835401908904571e-08  2.3780441274291493e-09  -3.3742148953960552e-10  2.7042509885382448e-11  2.7830219520254130e-12  -1.7157250237547535e-12  4.1717359350701285e-13  -6.6483857932063284e-14  5.7223946014163882e-15  6.1796548104529660e-16  0.0000000000000000e+00  0.0000000000000000e+00  -6.0898404793855903e-09  5.0252670096702788e-08  -2.8670219543166235e-07  1.3118673565109451e-06  -4.8892232322281230e-06  1.4324889422866165e-05  -2.8883401141566952e-05  1.5721484612308667e-05  1.4717988145179133e-04  -6.0432784416918029e-04  7.6774767411433569e-04  2.0413352043101834e-03  -8.1509837773388622e-03  -4.0107411231753414e-03  4.4433199249280922e-02  7.4998240272373673e-02  3.5902044394443840e-02  -6.5834401662570197e-03  -5.9766345320093886e-03  2.0931680722650809e-03  3.3748387219467485e-04  -4.3069580467837307e-04  1.3359081635359407e-04  -4.1089352968305987e-06  -1.5426998458498139e-05  8.9113736150891143e-06  -3.2361693798730094e-06  9.0260401488599021e-07  -2.0352265329760005e-07  3.6980953075005436e-08  -5.0363348124369769e-09  3.4745769637180706e-10  5.8135726101727868e-11  -2.8354204644640193e-11  6.3996353061511692e-12  -9.3751839196021351e-13  6.3537081291613366e-14  1.2023991618086627e-14  -5.2651211369412191e-15  0.0000000000000000e+00  0.0000000000000000e+00  1.6481309477961091e-09  4.0645290046178498e-09  -9.3041477157031864e-08  7.5153789834381043e-07  -4.3576484795078189e-06  2.0059909605716024e-05  -7.4141164798611830e-05  2.1023180616055564e-04  -3.8251196878551029e-04  3.7919498620145824e-06  2.6836207625203930e-03  -8.1509837773388570e-03  2.4372950575986853e-03  4.6059308438983163e-02  -5.3358534011766059e-02  -2.6745104351707716e-01  -2.4493043717110888e-01  -2.9979344269076544e-02  4.0764611293591359e-02  -1.4782137515458457e-03  -5.7841734949261739e-03  2.3312456245431186e-03  -2.0487840671426551e-04  -2.1155879290813944e-04  1.3783769007445949e-04  -5.1638641637224075e-05  1.4482742833821957e-05  -3.2361693798729958e-06  5.7453298662435103e-07  -7.4416970763333301e-08  4.1147765269290558e-09  1.1511764780554743e-09  -4.6497445433980424e-10  9.6894444942468362e-11  -1.2801220913486132e-11  5.4561887895548733e-13  2.5015166844313654e-13  -8.6448738875563484e-14  1.4677781825263815e-14  0.0000000000000000e+00  0.0000000000000000e+00  1.6697288911943963e-09  -9.7416462944460515e-09  3.0570775705894012e-08  3.4674292710353425e-08  -1.3016858842122101e-06  1.1175019102086004e-05  -6.6468485944181705e-05  3.0852740532453073e-04  -1.1293031362231718e-03  3.0703082781413575e-03  -4.7944631654831668e-03  -4.0107411231753518e-03  4.6059308438983204e-02  -9.0499730800404174e-02  -1.3266322431782368e-01  6.3089807661742170e-01  1.1969880617395219e+00  5.1658010841743540e-01  -1.4908437457014578e-01  -6.1972970841428027e-02  3.9175686712852778e-02  -5.8492426676201971e-03  -2.7037864316777223e-03  2.1215451739481522e-03  -8.2773466010694859e-04  2.3371059235862337e-04  -5.1638641637224319e-05  8.9113736150891312e-06  -1.0835898622129934e-06  4.1022007135493230e-08  2.2003312708274996e-08  -7.5535335220547407e-09  1.4407203072383414e-09  -1.6633318346007234e-10  1.1594423076279404e-12  4.8485094430285157e-12  -1.3579469972033001e-12  2.1677276364502827e-13  -1.3288218738733692e-14  0.0000000000000000e+00  0.0000000000000000e+00  -1.5848798996706196e-10  -2.2142975775912187e-09  2.4902730430822078e-08  -1.4924775902369592e-07  5.2959502588028496e-07  5.4588970101148939e-08  -1.7807465370259138e-05  1.6580604394266215e-04  -1.0189047968853051e-03  4.7830070372640214e-03  -1.7304916398296691e-02  4.4433199249280943e-02  -5.3358534011766039e-02  -1.3266322431782385e-01  7.1943265424582437e-01  -4.0443866768344605e-01  -4.1883997673213909e+00  -3.8708394354548710e+00  -1.4921218656565818e-01  6.0660094120354580e-01  -1.4184764815091780e-01  -2.9286574830867534e-02  3.2350464678156644e-02  -1.3349424777112675e-02  3.8007514641029004e-03  -8.2773466010694751e-04  1.3783769007445979e-04  -1.5426998458498109e-05  2.2348799950664949e-07  4.0983522651155799e-07  -1.2120442534977099e-07  2.0869236941811701e-08  -1.9876644142732226e-09  -1.0105435145013531e-10  8.8345289368293985e-11  -2.0627844469782382e-11  2.8006514941418126e-12  -1.0758606425203927e-13  -5.8489063453164501e-14  0.0000000000000000e+00  0.0000000000000000e+00  -3.2003566462184770e-10  1.8086127190865272e-09  -4.4251003158667854e-09  -2.1106174167263159e-08  3.3180161091055302e-07  -2.2431890807402184e-06  9.0632605005352354e-06  -7.3950762811435327e-06  -2.3475196776910029e-04  2.4499547137155500e-03  -1.5723248474607307e-02  7.4998240272373645e-02  -2.6745104351707716e-01  6.3089807661742148e-01  -4.0443866768344489e-01  -3.2704504427015793e+00  8.5330917653254428e+00  1.9710950827180621e+01  7.0793278709846250e+00  -3.1594263787338672e+00  -1.5622797683243977e-01  4.8362636355954675e-01  -2.1717338804453409e-01  6.2502177698967556e-02  -1.3349424777112673e-02  2.1215451739481504e-03  -2.1155879290814003e-04  -4.1089352968305267e-06  7.4741643027747114e-06  -1.9113290443877447e-06  2.9038103516476917e-07  -2.0047070981516216e-08  -3.4541293525757376e-09  1.5259093987334549e-09  -2.9871705402091469e-10  3.2322625930321293e-11  6.1540189872823573e-13  -1.1548602236421850e-12  2.6642098885503933e-13  0.0000000000000000e+00  0.0000000000000000e+00  5.3618272875391441e-11  3.0598755555070042e-10  -4.4563792283891997e-09  2.8181585449067395e-08  -9.5853971436627611e-08  -1.0574052529898032e-07  4.1351289086893534e-06  -3.2910459464626822e-05  1.5307466131767126e-04  -2.5855161800653943e-04  -2.8842793786285161e-03  3.5902044394443840e-02  -2.4493043717110885e-01  1.1969880617395221e+00  -4.1883997673213909e+00  8.5330917653254410e+00  3.5261370456623933e+00  -6.7122973469043657e+01  -6.2722667824881377e+01  5.4760977611391723e+00  6.8692769858168887e+00  -3.5805661658059096e+00  1.0458107855148280e+00  -2.1717338804453459e-01  3.2350464678156721e-02  -2.7037864316777345e-03  -2.0487840671426405e-04  1.3359081635359361e-04  -2.9347819668895406e-05  3.7753710558056685e-06  -1.1741331950264890e-07  -8.2073117304917393e-08  2.4941165071034884e-08  -4.0293342058077069e-09  2.9583680896333175e-10  4.5061022752593678e-11  -2.0701340437666563e-11  3.9925203893058462e-12  -3.5666142170960218e-13  0.0000000000000000e+00  0.0000000000000000e+00  4.9257873464991141e-11  -3.6229730145942427e-10  1.3151439964016677e-09  8.4813997405701278e-10  -5.1094869319949302e-08  4.1067911167095409e-07  -1.8252316152187491e-06  1.9410261310324271e-06  4.5145683549019005e-05  -4.6278554014249384e-04  2.5388023473947767e-03  -6.5834401662570258e-03  -2.9979344269076520e-02  5.1658010841743529e-01  -3.8708394354548723e+00  1.9710950827180625e+01  -6.7122973469043686e+01  9.5354862228460973e+01  3.4806630205709155e+02  7.9457984667526375e+01  -6.0424858595392536e+01  1.8044439553119517e+01  -3.5805661658058936e+00  4.8362636355954497e-01  -2.9286574830867232e-02  -5.8492426676202145e-03  2.3312456245431243e-03  -4.3069580467837188e-04  4.2943034191757348e-05  1.5677073436570264e-06  -1.6648461158504918e-06  3.8063068766337777e-07  -4.8161675641415445e-08  9.9384955635732193e-10  1.1895966820825893e-09  -3.3583892124540943e-10  5.0472996760781964e-11  -2.7681059991695059e-12  -8.1808764155784329e-13  0.0000000000000000e+00  0.0000000000000000e+00  -1.9154466261535044e-11  1.6540304394454416e-11  5.2731937413882382e-10  -5.0147481473257091e-09  2.5080263968312052e-08  -4.6011923062372231e-08  -4.5026562707656584e-07  5.4206865418510350e-06  -3.1369967471301521e-05  8.5584501704769552e-05  3.4052135715162743e-04  -5.9766345320093964e-03  4.0764611293591380e-02  -1.4908437457014584e-01  -1.4921218656565777e-01  7.0793278709846286e+00  -6.2722667824881377e+01  3.4806630205709172e+02  -1.1321279513446580e+03  -1.0736061560150131e+03  3.3351375800802845e+02  -6.0424858595392806e+01  6.8692769858169100e+00  -1.5622797683244583e-01  -1.4184764815091669e-01  3.9175686712852528e-02  -5.7841734949261583e-03  3.3748387219466997e-04  8.0831284481255677e-05  -3.0086892060464803e-05  5.2357836666041282e-06  -4.4121995386987591e-07  -4.2834652210520630e-08  2.4003453652538842e-08  -4.835503628718033