<?xml version="1.0"?>
<VTKFile type="UnstructuredGrid"  version="0.1"  >
<UnstructuredGrid>
<Piece  NumberOfPoints="1681" NumberOfCells="3200">
<Points>
<DataArray  type="Float64"  NumberOfComponents="3"  format="ascii">-2 -2 0  -1.9 -2 0  -1.8 -2 0  -1.7 -2 0  -1.6 -2 0  -1.5 -2 0  -1.4 -2 0  -1.3 -2 0  -1.2 -2 0  -1.1 -2 0  -1 -2 0  -0.8999999999999999 -2 0  -0.8 -2 0  -0.7 -2 0  -0.6000000000000001 -2 0  -0.5 -2 0  -0.3999999999999999 -2 0  -0.3 -2 0  -0.2 -2 0  -0.1000000000000001 -2 0  0 -2 0  0.1000000000000001 -2 0  0.2000000000000002 -2 0  0.2999999999999998 -2 0  0.3999999999999999 -2 0  0.5 -2 0  0.6000000000000001 -2 0  0.7000000000000002 -2 0  0.7999999999999998 -2 0  0.8999999999999999 -2 0  1 -2 0  1.1 -2 0  1.2 -2 0  1.3 -2 0  1.4 -2 0  1.5 -2 0  1.6 -2 0  1.7 -2 0  1.8 -2 0  1.9 -2 0  2 -2 0  -2 -1.9 0  -1.9 -1.9 0  -1.8 -1.9 0  -1.7 -1.9 0  -1.6 -1.9 0  -1.5 -1.9 0  -1.4 -1.9 0  -1.3 -1.9 0  -1.2 -1.9 0  -1.1 -1.9 0  -1 -1.9 0  -0.8999999999999999 -1.9 0  -0.8 -1.9 0  -0.7 -1.9 0  -0.6000000000000001 -1.9 0  -0.5 -1.9 0  -0.3999999999999999 -1.9 0  -0.3 -1.9 0  -0.2 -1.9 0  -0.1000000000000001 -1.9 0  0 -1.9 0  0.1000000000000001 -1.9 0  0.2000000000000002 -1.9 0  0.2999999999999998 -1.9 0  0.3999999999999999 -1.9 0  0.5 -1.9 0  0.6000000000000001 -1.9 0  0.7000000000000002 -1.9 0  0.7999999999999998 -1.9 0  0.8999999999999999 -1.9 0  1 -1.9 0  1.1 -1.9 0  1.2 -1.9 0  1.3 -1.9 0  1.4 -1.9 0  1.5 -1.9 0  1.6 -1.9 0  1.7 -1.9 0  1.8 -1.9 0  1.9 -1.9 0  2 -1.9 0  -2 -1.8 0  -1.9 -1.8 0  -1.8 -1.8 0  -1.7 -1.8 0  -1.6 -1.8 0  -1.5 -1.8 0  -1.4 -1.8 0  -1.3 -1.8 0  -1.2 -1.8 0  -1.1 -1.8 0  -1 -1.8 0  -0.8999999999999999 -1.8 0  -0.8 -1.8 0  -0.7 -1.8 0  -0.6000000000000001 -1.8 0  -0.5 -1.8 0  -0.3999999999999999 -1.8 0  -0.3 -1.8 0  -0.2 -1.8 0  -0.1000000000000001 -1.8 0  0 -1.8 0  0.1000000000000001 -1.8 0  0.2000000000000002 -1.8 0  0.2999999999999998 -1.8 0  0.3999999999999999 -1.8 0  0.5 -1.8 0  0.6000000000000001 -1.8 0  0.7000000000000002 -1.8 0  0.7999999999999998 -1.8 0  0.8999999999999999 -1.8 0  1 -1.8 0  1.1 -1.8 0  1.2 -1.8 0  1.3 -1.8 0  1.4 -1.8 0  1.5 -1.8 0  1.6 -1.8 0  1.7 -1.8 0  1.8 -1.8 0  1.9 -1.8 0  2 -1.8 0  -2 -1.7 0  -1.9 -1.7 0  -1.8 -1.7 0  -1.7 -1.7 0  -1.6 -1.7 0  -1.5 -1.7 0  -1.4 -1.7 0  -1.3 -1.7 0  -1.2 -1.7 0  -1.1 -1.7 0  -1 -1.7 0  -0.8999999999999999 -1.7 0  -0.8 -1.7 0  -0.7 -1.7 0  -0.6000000000000001 -1.7 0  -0.5 -1.7 0  -0.3999999999999999 -1.7 0  -0.3 -1.7 0  -0.2 -1.7 0  -0.1000000000000001 -1.7 0  0 -1.7 0  0.1000000000000001 -1.7 0  0.2000000000000002 -1.7 0  0.2999999999999998 -1.7 0  0.3999999999999999 -1.7 0  0.5 -1.7 0  0.6000000000000001 -1.7 0  0.7000000000000002 -1.7 0  0.7999999999999998 -1.7 0  0.8999999999999999 -1.7 0  1 -1.7 0  1.1 -1.7 0  1.2 -1.7 0  1.3 -1.7 0  1.4 -1.7 0  1.5 -1.7 0  1.6 -1.7 0  1.7 -1.7 0  1.8 -1.7 0  1.9 -1.7 0  2 -1.7 0  -2 -1.6 0  -1.9 -1.6 0  -1.8 -1.6 0  -1.7 -1.6 0  -1.6 -1.6 0  -1.5 -1.6 0  -1.4 -1.6 0  -1.3 -1.6 0  -1.2 -1.6 0  -1.1 -1.6 0  -1 -1.6 0  -0.8999999999999999 -1.6 0  -0.8 -1.6 0  -0.7 -1.6 0  -0.6000000000000001 -1.6 0  -0.5 -1.6 0  -0.3999999999999999 -1.6 0  -0.3 -1.6 0  -0.2 -1.6 0  -0.1000000000000001 -1.6 0  0 -1.6 0  0.1000000000000001 -1.6 0  0.2000000000000002 -1.6 0  0.2999999999999998 -1.6 0  0.3999999999999999 -1.6 0  0.5 -1.6 0  0.6000000000000001 -1.6 0  0.7000000000000002 -1.6 0  0.7999999999999998 -1.6 0  0.8999999999999999 -1.6 0  1 -1.6 0  1.1 -1.6 0  1.2 -1.6 0  1.3 -1.6 0  1.4 -1.6 0  1.5 -1.6 0  1.6 -1.6 0  1.7 -1.6 0  1.8 -1.6 0  1.9 -1.6 0  2 -1.6 0  -2 -1.5 0  -1.9 -1.5 0  -1.8 -1.5 0  -1.7 -1.5 0  -1.6 -1.5 0  -1.5 -1.5 0  -1.4 -1.5 0  -1.3 -1.5 0  -1.2 -1.5 0  -1.1 -1.5 0  -1 -1.5 0  -0.8999999999999999 -1.5 0  -0.8 -1.5 0  -0.7 -1.5 0  -0.6000000000000001 -1.5 0  -0.5 -1.5 0  -0.3999999999999999 -1.5 0  -0.3 -1.5 0  -0.2 -1.5 0  -0.1000000000000001 -1.5 0  0 -1.5 0  0.1000000000000001 -1.5 0  0.2000000000000002 -1.5 0  0.2999999999999998 -1.5 0  0.3999999999999999 -1.5 0  0.5 -1.5 0  0.6000000000000001 -1.5 0  0.7000000000000002 -1.5 0  0.7999999999999998 -1.5 0  0.8999999999999999 -1.5 0  1 -1.5 0  1.1 -1.5 0  1.2 -1.5 0  1.3 -1.5 0  1.4 -1.5 0  1.5 -1.5 0  1.6 -1.5 0  1.7 -1.5 0  1.8 -1.5 0  1.9 -1.5 0  2 -1.5 0  -2 -1.4 0  -1.9 -1.4 0  -1.8 -1.4 0  -1.7 -1.4 0  -1.6 -1.4 0  -1.5 -1.4 0  -1.4 -1.4 0  -1.3 -1.4 0  -1.2 -1.4 0  -1.1 -1.4 0  -1 -1.4 0  -0.8999999999999999 -1.4 0  -0.8 -1.4 0  -0.7 -1.4 0  -0.6000000000000001 -1.4 0  -0.5 -1.4 0  -0.3999999999999999 -1.4 0  -0.3 -1.4 0  -0.2 -1.4 0  -0.1000000000000001 -1.4 0  0 -1.4 0  0.1000000000000001 -1.4 0  0.2000000000000002 -1.4 0  0.2999999999999998 -1.4 0  0.3999999999999999 -1.4 0  0.5 -1.4 0  0.6000000000000001 -1.4 0  0.7000000000000002 -1.4 0  0.7999999999999998 -1.4 0  0.8999999999999999 -1.4 0  1 -1.4 0  1.1 -1.4 0  1.2 -1.4 0  1.3 -1.4 0  1.4 -1.4 0  1.5 -1.4 0  1.6 -1.4 0  1.7 -1.4 0  1.8 -1.4 0  1.9 -1.4 0  2 -1.4 0  -2 -1.3 0  -1.9 -1.3 0  -1.8 -1.3 0  -1.7 -1.3 0  -1.6 -1.3 0  -1.5 -1.3 0  -1.4 -1.3 0  -1.3 -1.3 0  -1.2 -1.3 0  -1.1 -1.3 0  -1 -1.3 0  -0.8999999999999999 -1.3 0  -0.8 -1.3 0  -0.7 -1.3 0  -0.6000000000000001 -1.3 0  -0.5 -1.3 0  -0.3999999999999999 -1.3 0  -0.3 -1.3 0  -0.2 -1.3 0  -0.1000000000000001 -1.3 0  0 -1.3 0  0.1000000000000001 -1.3 0  0.2000000000000002 -1.3 0  0.2999999999999998 -1.3 0  0.3999999999999999 -1.3 0  0.5 -1.3 0  0.6000000000000001 -1.3 0  0.7000000000000002 -1.3 0  0.7999999999999998 -1.3 0  0.8999999999999999 -1.3 0  1 -1.3 0  1.1 -1.3 0  1.2 -1.3 0  1.3 -1.3 0  1.4 -1.3 0  1.5 -1.3 0  1.6 -1.3 0  1.7 -1.3 0  1.8 -1.3 0  1.9 -1.3 0  2 -1.3 0  -2 -1.2 0  -1.9 -1.2 0  -1.8 -1.2 0  -1.7 -1.2 0  -1.6 -1.2 0  -1.5 -1.2 0  -1.4 -1.2 0  -1.3 -1.2 0  -1.2 -1.2 0  -1.1 -1.2 0  -1 -1.2 0  -0.8999999999999999 -1.2 0  -0.8 -1.2 0  -0.7 -1.2 0  -0.6000000000000001 -1.2 0  -0.5 -1.2 0  -0.3999999999999999 -1.2 0  -0.3 -1.2 0  -0.2 -1.2 0  -0.1000000000000001 -1.2 0  0 -1.2 0  0.1000000000000001 -1.2 0  0.2000000000000002 -1.2 0  0.2999999999999998 -1.2 0  0.3999999999999999 -1.2 0  0.5 -1.2 0  0.6000000000000001 -1.2 0  0.7000000000000002 -1.2 0  0.7999999999999998 -1.2 0  0.8999999999999999 -1.2 0  1 -1.2 0  1.1 -1.2 0  1.2 -1.2 0  1.3 -1.2 0  1.4 -1.2 0  1.5 -1.2 0  1.6 -1.2 0  1.7 -1.2 0  1.8 -1.2 0  1.9 -1.2 0  2 -1.2 0  -2 -1.1 0  -1.9 -1.1 0  -1.8 -1.1 0  -1.7 -1.1 0  -1.6 -1.1 0  -1.5 -1.1 0  -1.4 -1.1 0  -1.3 -1.1 0  -1.2 -1.1 0  -1.1 -1.1 0  -1 -1.1 0  -0.8999999999999999 -1.1 0  -0.8 -1.1 0  -0.7 -1.1 0  -0.6000000000000001 -1.1 0  -0.5 -1.1 0  -0.3999999999999999 -1.1 0  -0.3 -1.1 0  -0.2 -1.1 0  -0.1000000000000001 -1.1 0  0 -1.1 0  0.1000000000000001 -1.1 0  0.2000000000000002 -1.1 0  0.2999999999999998 -1.1 0  0.3999999999999999 -1.1 0  0.5 -1.1 0  0.6000000000000001 -1.1 0  0.7000000000000002 -1.1 0  0.7999999999999998 -1.1 0  0.8999999999999999 -1.1 0  1 -1.1 0  1.1 -1.1 0  1.2 -1.1 0  1.3 -1.1 0  1.4 -1.1 0  1.5 -1.1 0  1.6 -1.1 0  1.7 -1.1 0  1.8 -1.1 0  1.9 -1.1 0  2 -1.1 0  -2 -1 0  -1.9 -1 0  -1.8 -1 0  -1.7 -1 0  -1.6 -1 0  -1.5 -1 0  -1.4 -1 0  -1.3 -1 0  -1.2 -1 0  -1.1 -1 0  -1 -1 0  -0.8999999999999999 -1 0  -0.8 -1 0  -0.7 -1 0  -0.6000000000000001 -1 0  -0.5 -1 0  -0.3999999999999999 -1 0  -0.3 -1 0  -0.2 -1 0  -0.1000000000000001 -1 0  0 -1 0  0.1000000000000001 -1 0  0.2000000000000002 -1 0  0.2999999999999998 -1 0  0.3999999999999999 -1 0  0.5 -1 0  0.6000000000000001 -1 0  0.7000000000000002 -1 0  0.7999999999999998 -1 0  0.8999999999999999 -1 0  1 -1 0  1.1 -1 0  1.2 -1 0  1.3 -1 0  1.4 -1 0  1.5 -1 0  1.6 -1 0  1.7 -1 0  1.8 -1 0  1.9 -1 0  2 -1 0  -2 -0.8999999999999999 0  -1.9 -0.8999999999999999 0  -1.8 -0.8999999999999999 0  -1.7 -0.8999999999999999 0  -1.6 -0.8999999999999999 0  -1.5 -0.8999999999999999 0  -1.4 -0.8999999999999999 0  -1.3 -0.8999999999999999 0  -1.2 -0.8999999999999999 0  -1.1 -0.8999999999999999 0  -1 -0.8999999999999999 0  -0.8999999999999999 -0.8999999999999999 0  -0.8 -0.8999999999999999 0  -0.7 -0.8999999999999999 0  -0.6000000000000001 -0.8999999999999999 0  -0.5 -0.8999999999999999 0  -0.3999999999999999 -0.8999999999999999 0  -0.3 -0.8999999999999999 0  -0.2 -0.8999999999999999 0  -0.1000000000000001 -0.8999999999999999 0  0 -0.8999999999999999 0  0.1000000000000001 -0.8999999999999999 0  0.2000000000000002 -0.8999999999999999 0  0.2999999999999998 -0.8999999999999999 0  0.3999999999999999 -0.8999999999999999 0  0.5 -0.8999999999999999 0  0.6000000000000001 -0.8999999999999999 0  0.7000000000000002 -0.8999999999999999 0  0.7999999999999998 -0.8999999999999999 0  0.8999999999999999 -0.8999999999999999 0  1 -0.8999999999999999 0  1.1 -0.8999999999999999 0  1.2 -0.8999999999999999 0  1.3 -0.8999999999999999 0  1.4 -0.8999999999999999 0  1.5 -0.8999999999999999 0  1.6 -0.8999999999999999 0  1.7 -0.8999999999999999 0  1.8 -0.8999999999999999 0  1.9 -0.8999999999999999 0  2 -0.8999999999999999 0  -2 -0.8 0  -1.9 -0.8 0  -1.8 -0.8 0  -1.7 -0.8 0  -1.6 -0.8 0  -1.5 -0.8 0  -1.4 -0.8 0  -1.3 -0.8 0  -1.2 -0.8 0  -1.1 -0.8 0  -1 -0.8 0  -0.8999999999999999 -0.8 0  -0.8 -0.8 0  -0.7 -0.8 0  -0.6000000000000001 -0.8 0  -0.5 -0.8 0  -0.3999999999999999 -0.8 0  -0.3 -0.8 0  -0.2 -0.8 0  -0.1000000000000001 -0.8 0  0 -0.8 0  0.1000000000000001 -0.8 0  0.2000000000000002 -0.8 0  0.2999999999999998 -0.8 0  0.3999999999999999 -0.8 0  0.5 -0.8 0  0.6000000000000001 -0.8 0  0.7000000000000002 -0.8 0  0.7999999999999998 -0.8 0  0.8999999999999999 -0.8 0  1 -0.8 0  1.1 -0.8 0  1.2 -0.8 0  1.3 -0.8 0  1.4 -0.8 0  1.5 -0.8 0  1.6 -0.8 0  1.7 -0.8 0  1.8 -0.8 0  1.9 -0.8 0  2 -0.8 0  -2 -0.7 0  -1.9 -0.7 0  -1.8 -0.7 0  -1.7 -0.7 0  -1.6 -0.7 0  -1.5 -0.7 0  -1.4 -0.7 0  -1.3 -0.7 0  -1.2 -0.7 0  -1.1 -0.7 0  -1 -0.7 0  -0.8999999999999999 -0.7 0  -0.8 -0.7 0  -0.7 -0.7 0  -0.6000000000000001 -0.7 0  -0.5 -0.7 0  -0.3999999999999999 -0.7 0  -0.3 -0.7 0  -0.2 -0.7 0  -0.1000000000000001 -0.7 0  0 -0.7 0  0.1000000000000001 -0.7 0  0.2000000000000002 -0.7 0  0.2999999999999998 -0.7 0  0.3999999999999999 -0.7 0  0.5 -0.7 0  0.600000000000000
[...]
<PointData  Scalars="f_1726"> 
<DataArray  type="Float64"  Name="f_1726"  format="ascii">0.0000000000000000e+00  0.0000000000000000e+00  0.0000000000000000e+00  0.0000000000000000e+00  0.0000000000000000e+00  0.0000000000000000e+00  0.0000000000000000e+00  0.0000000000000000e+00  0.0000000000000000e+00  0.0000000000000000e+00  0.0000000000000000e+00  0.0000000000000000e+00  0.0000000000000000e+00  0.0000000000000000e+00  0.0000000000000000e+00  0.0000000000000000e+00  0.0000000000000000e+00  0.0000000000000000e+00  0.0000000000000000e+00  0.0000000000000000e+00  0.0000000000000000e+00  0.0000000000000000e+00  0.0000000000000000e+00  0.0000000000000000e+00  0.0000000000000000e+00  0.0000000000000000e+00  0.0000000000000000e+00  0.0000000000000000e+00  0.0000000000000000e+00  0.0000000000000000e+00  0.0000000000000000e+00  0.0000000000000000e+00  0.0000000000000000e+00  0.0000000000000000e+00  0.0000000000000000e+00  0.0000000000000000e+00  0.0000000000000000e+00  0.0000000000000000e+00  0.0000000000000000e+00  0.0000000000000000e+00  0.0000000000000000e+00  0.0000000000000000e+00  -8.2442022719096246e-12  -9.6074571530147877e-12  6.3133333731660611e-11  -1.5213343396071767e-11  -3.1974828377583744e-10  1.7227103597315589e-10  1.5732528742359103e-09  2.1645227372613605e-10  -6.5302870158119363e-09  -1.3030316035007067e-08  -1.1485622013666531e-08  -3.9587658095738371e-09  1.0713851155743247e-09  1.0854250892274436e-09  -1.0302680965675848e-10  -2.0804260000535032e-10  3.4855130630435552e-11  3.2020606448659324e-11  -1.2451565257494342e-11  -2.2748618666666975e-12  2.7109543138222393e-12  -5.3180660406408818e-13  -2.3185156436157048e-13  1.7318980771374666e-13  -3.8021440038728663e-14  -8.6381484360892399e-15  9.5414487533671809e-15  -3.4226481975584223e-15  4.0171505742064286e-16  2.5717007244363799e-16  -1.9167427811496375e-16  7.1830621521056921e-17  -1.5885059528524023e-17  1.3152008345213453e-19  1.8625088738057755e-18  -1.1203702081815005e-18  4.5584423952543699e-19  -1.5110796297547611e-19  4.7900236629480955e-20  0.0000000000000000e+00  0.0000000000000000e+00  -9.6074571530147715e-12  6.9092984780935705e-11  -6.1465014977015514e-11  -3.0267876137744467e-10  6.3562056166293199e-10  1.1879615900953125e-09  -3.4225209352944403e-09  -6.6855238934964793e-09  9.9685933788163769e-09  4.2725268807759682e-08  5.5777455149310587e-08  3.2667284618051535e-08  2.6421904662313612e-09  -6.3326611608232934e-09  -1.4394277768134057e-09  1.1757080040629340e-09  1.9891047674723348e-10  -2.3551522815309168e-10  1.0752201430950429e-11  3.6920571743310664e-11  -1.2442407351649170e-11  -1.7994368528835698e-12  2.5953804971924344e-12  -7.5072921592401582e-13  -6.9937469493545623e-14  1.4091544894643117e-13  -5.6196925502371263e-14  7.8163241013311563e-15  3.7199036943021591e-15  -2.9962889535260874e-15  1.1287798856387282e-15  -2.4100058015174062e-16  -4.5002834474968766e-18  3.1778561902265315e-17  -1.8028233820847691e-17  7.0480171195183767e-18  -2.2287134517933109e-18  6.0541912836610470e-19  -1.5110796297547623e-19  0.0000000000000000e+00  0.0000000000000000e+00  6.3133333731660611e-11  -6.1465014977015630e-11  -2.7672426865515740e-10  8.1953475898675500e-10  4.5213803248999755e-10  -4.8619268940901310e-09  3.0168289718855546e-10  2.4287504824046177e-08  9.2236246989071123e-09  -9.8795333871519845e-08  -2.1025114475062904e-07  -1.8637382254044364e-07  -6.0482605396367330e-08  1.9872859075095747e-08  1.6188285740535277e-08  -2.8765836960240252e-09  -2.8969168869957114e-09  8.5492339335405297e-10  3.4278958802501478e-10  -2.2561514457308330e-10  9.1904721780685361e-12  3.2810510317911266e-11  -1.3457127327783535e-11  4.0004857337050587e-13  1.8205933992968973e-12  -8.8274794092541436e-13  1.6261376231326852e-13  4.1302957919634917e-14  -4.3218541530101056e-14  1.7513725173558295e-14  -4.0054181230055362e-15  4.6047504201725966e-17  4.6170483256702104e-16  -2.7378870896772698e-16  1.0870039565470127e-16  -3.4706528143646309e-17  9.4049566104765147e-18  -2.2287134517933009e-18  4.5584423952543545e-19  0.0000000000000000e+00  0.0000000000000000e+00  -1.5213343396071693e-11  -3.0267876137744467e-10  8.1953475898675562e-10  1.5380423600973531e-10  -4.9798307713350423e-09  5.6705982769708783e-09  2.1735362657326319e-08  -3.9640527983317546e-08  -1.0952028663557163e-07  1.1907467737128696e-07  6.3270959657138087e-07  8.5279337861662667e-07  4.8854523310315372e-07  2.2540394106801403e-08  -9.7020098897259079e-08  -1.3720293815102041e-08  1.8319740445255006e-08  5.5134244359854171e-10  -3.2598905630545547e-09  6.7887815889735347e-10  3.3426705623788611e-10  -2.1831567566522286e-10  2.9292398843818806e-11  2.1011668013594688e-11  -1.3409350489328432e-11  3.1518253188125643e-12  3.5468537646900086e-13  -6.0944383822565880e-13  2.7118814757513025e-13  -6.7031842268859172e-14  2.8306263927480461e-15  6.6358442788576026e-15  -4.1761871073726178e-15  1.6915427425600962e-15  -5.4482755437357282e-16  1.4818551123758204e-16  -3.4706528143646481e-17  7.0480171195183875e-18  -1.1203702081815046e-18  0.0000000000000000e+00  0.0000000000000000e+00  -3.1974828377583780e-10  6.3562056166293189e-10  4.5213803248999652e-10  -4.9798307713350431e-09  7.4064166082312452e-09  1.6384561122492879e-08  -6.2586020618513949e-08  -3.4791853163904833e-08  3.3763894250927546e-07  2.3246883428738395e-07  -1.3751175762523053e-06  -3.1782917520807577e-06  -2.8327359097848511e-06  -8.4617480386679763e-07  3.4426889973097601e-07  2.1569117898581485e-07  -6.2310897324764031e-08  -3.3214765213171172e-08  1.6303693311660816e-08  1.7552044554235318e-09  -3.1433707503895829e-09  7.7331002152722416e-10  1.9231187557405880e-10  -1.9418420961889006e-10  5.7429798394882462e-11  7.5370784853043973e-13  -8.3215703013330099e-12  4.1601512436149849e-12  -1.1153253661836237e-12  7.8994579482564242e-14  9.4042149950238276e-14  -6.3588670519290584e-14  2.6335589354219108e-14  -8.5587231790389984e-15  2.3329743362255216e-15  -5.4482755437357193e-16  1.0870039565470147e-16  -1.8028233820847645e-17  1.8625088738057713e-18  0.0000000000000000e+00  0.0000000000000000e+00  1.7227103597315659e-10  1.1879615900953127e-09  -4.8619268940901318e-09  5.6705982769708841e-09  1.6384561122492872e-08  -6.7606250759631135e-08  1.8308115499833214e-08  3.5636874737605898e-07  -3.8283692833922619e-07  -1.7408699733376667e-06  1.2663067326149084e-06  9.3120472802416944e-06  1.3040158368526313e-05  7.2644404549552209e-06  3.5486142723742428e-08  -1.4582090068375103e-06  -6.8737757196920465e-08  2.6696634033230900e-07  -2.9910541740567541e-08  -3.7638852241434145e-08  1.5603701271490100e-08  6.4606251294851833e-10  -2.6193117115782367e-09  9.9193369295328336e-10  -6.5691459863955787e-11  -1.0812666143034080e-10  6.2987268233761519e-11  -1.8431953395959224e-11  1.8091331272577571e-12  1.3053519942769161e-12  -9.6516080170985438e-13  4.1001042293661829e-13  -1.3458124913902528e-13  3.6768033919706921e-14  -8.5587231790389952e-15  1.6915427425600934e-15  -2.7378870896772753e-16  3.1778561902265278e-17  1.3152008345212081e-19  0.0000000000000000e+00  0.0000000000000000e+00  1.5732528742359109e-09  -3.4225209352944449e-09  3.0168289718856135e-10  2.1735362657326315e-08  -6.2586020618513975e-08  1.8308115499833267e-08  3.3904004539339942e-07  -6.7669025373104589e-07  -1.0746601211806574e-06  4.4356305870939694e-06  4.9314631454299333e-06  -1.8775963227689852e-05  -4.8196255596556382e-05  -4.3208548805290428e-05  -1.1575932949571176e-05  5.8916692340683063e-06  2.6880846874910857e-06  -1.1865112948919467e-06  -2.9269997723764149e-07  2.6192401262549709e-07  -2.7845122907571403e-08  -3.1308011352089836e-08  1.6213270588675859e-08  -2.2453936567155632e-09  -1.2921024698048128e-09  9.3655561467667736e-10  -3.0226160740935881e-10  3.7791749321731002e-11  1.7579272216029360e-11  -1.4589271067150975e-11  6.3828861984657750e-12  -2.1187325156789088e-12  5.8029540161332423e-13  -1.3458124913902545e-13  2.6335589354219142e-14  -4.1761871073726217e-15  4.6170483256702330e-16  -4.5002834474971470e-18  -1.5885059528523962e-17  0.0000000000000000e+00  0.0000000000000000e+00  2.1645227372613375e-10  -6.6855238934964776e-09  2.4287504824046183e-08  -3.9640527983317586e-08  -3.4791853163904853e-08  3.5636874737605909e-07  -6.7669025373104621e-07  -7.3005747887941811e-07  5.1990657804060632e-06  -2.0973629156173060e-06  -2.6781235295911305e-05  1.0219918891081980e-05  1.3666342971225536e-04  2.0056153320431580e-04  1.0778398876010150e-04  -4.8072482752347630e-06  -2.1393795477393964e-05  1.2617847559441717e-06  3.5237751496016047e-06  -9.6784148546469424e-07  -2.8681974081167216e-07  2.4743304155454258e-07  -5.3352505992838246e-08  -1.3031812483819590e-08  1.3566270242512882e-08  -4.9102550961395763e-09  7.4833455778325903e-10  2.2586858446064903e-10  -2.1934444107797505e-10  9.9349652239112664e-11  -3.3401441964742048e-11  9.1737526299158872e-12  -2.1187325156788996e-12  4.1001042293661682e-13  -6.3588670519290306e-14  6.6358442788575592e-15  4.6047504201730896e-17  -2.4100058015174012e-16  7.1830621521056699e-17  0.0000000000000000e+00  0.0000000000000000e+00  -6.5302870158119388e-09  9.9685933788163868e-09  9.2236246989070776e-09  -1.0952028663557163e-07  3.3763894250927567e-07  -3.8283692833922625e-07  -1.0746601211806583e-06  5.1990657804060675e-06  -4.6444967964008905e-06  -2.2851412329638141e-05  5.2708533885066504e-05  9.5675853008101228e-05  -2.4865598842970443e-04  -7.3411555843837749e-04  -6.6234993950568517e-04  -1.5260302250614196e-04  9.9507817583692961e-05  2.9347433498246206e-05  -2.0392382213164442e-05  -5.9958786834496039e-07  3.4035770618032210e-06  -1.0822509889939932e-06  -7.6325781670155042e-08  1.8876529157869355e-07  -7.8790230494202862e-08  1.4303488300184444e-08  2.6748544044765099e-09  -3.2739232051367999e-09  1.5458729694466732e-09  -5.2741413393611230e-10  1.4530766548520122e-10  -3.3401441964742184e-11  6.3828861984657806e-12  -9.6516080170985801e-13  9.4042149950239109e-14  2.8306263927478619e-15  -4.0054181230055149e-15  1.1287798856387213e-15  -1.9167427811496296e-16  0.0000000000000000e+00  0.0000000000000000e+00  -1.3030316035007067e-08  4.2725268807759682e-08  -9.8795333871519872e-08  1.1907467737128716e-07  2.3246883428738377e-07  -1.7408699733376686e-06  4.4356305870939720e-06  -2.0973629156173073e-06  -2.2851412329638158e-05  6.3399930178363012e-05  2.8565971456110296e-05  -3.9284976599449171e-04  2.4649974849384967e-06  1.9958866701847971e-03  3.1092447807404941e-03  1.5926192136710769e-03  -1.6807423919214812e-04  -3.0083868036985100e-04  5.5635118904204372e-05  3.8270056895426167e-05  -1.9558305346172702e-05  1.0191048932226246e-06  2.4542202549919778e-06  -1.2424798477695176e-06  2.6641776377639867e-07  2.6666793627484998e-08  -4.8375546208012151e-08  2.4039863299269179e-08  -8.3437900222694485e-09  2.3069264908734381e-09  -5.2741413393611137e-10  9.9349652239112845e-11  -1.4589271067150943e-11  1.3053519942769143e-12  7.8994579482564431e-14  -6.7031842268859096e-14  1.7513725173558336e-14  -2.9962889535260826e-15  2.5717007244363779e-16  0.0000000000000000e+00  0.0000000000000000e+00  -1.1485622013666519e-08  5.5777455149310561e-08  -2.1025114475062912e-07  6.3270959657138097e-07  -1.3751175762523063e-06  1.2663067326149117e-06  4.9314631454299350e-06  -2.6781235295911322e-05  5.2708533885066531e-05  2.8565971456110357e-05  -3.9444932060053657e-04  4.9908257087389381e-04  1.7445163229628682e-03  -3.1166919591776895e-03  -1.1249245625892329e-02  -1.0221065508597568e-02  -1.8749565982926091e-03  1.6503755663475476e-03  2.2135954310868101e-04  -3.1008094249043586e-04  5.2545239309882978e-05  2.7915577771396986e-05  -1.9077863448811284e-05  4.8586602879205565e-06  1.4528075970000631e-07  -7.0439915670211174e-07  3.7348130080252903e-07  -1.3230207327689712e-07  3.6727654934941936e-08  -8.3437900222694518e-09  1.5458729694466722e-09  -2.1934444107797574e-10  1.7579272216029418e-11  1.8091331272577378e-12  -1.1153253661836194e-12  2.7118814757512894e-13  -4.3218541530100930e-14  3.7199036943021197e-15  4.0171505742064794e-16  0.0000000000000000e+00  0.0000000000000000e+00  -3.9587658095738321e-09  3.2667284618051508e-08  -1.8637382254044351e-07  8.5279337861662657e-07  -3.1782917520807577e-06  9.3120472802416995e-06  -1.8775963227689863e-05  1.0219918891082018e-05  9.5675853008101336e-05  -3.9284976599449198e-04  4.9908257087389371e-04  1.3269917397767178e-03  -5.2986340120645603e-03  -2.6072250797413662e-03  2.8884275473793967e-02  4.8753406657119948e-02  2.3338507194668838e-02  -4.2796355549501609e-03  -3.8851750750660344e-03  1.3606862488802971e-03  2.1938499358880705e-04  -2.7997840528979761e-04  8.6842136184661075e-05  -2.6710572504988265e-06  -1.0028485023307573e-05  5.7929335428688211e-06  -2.1037064498483466e-06  5.8674737471534393e-07  -1.3230207327689731e-07  2.4039863299269222e-08  -3.2739232051368065e-09  2.2586858446065089e-10  3.7791749321730776e-11  -1.8431953395959201e-11  4.1601512436149776e-12  -6.0944383822565709e-13  4.1302957919634810e-14  7.8163241013311641e-15  -3.4226481975584211e-15  0.0000000000000000e+00  0.0000000000000000e+00  1.0713851155743268e-09  2.6421904662313430e-09  -6.0482605396367211e-08  4.8854523310315308e-07  -2.8327359097848499e-06  1.3040158368526305e-05  -4.8196255596556382e-05  1.3666342971225547e-04  -2.4865598842970481e-04  2.4649974849382850e-06  1.7445163229628702e-03  -5.2986340120645620e-03  1.5843896690769261e-03  2.9941345110448308e-02  -3.4686284609555702e-02  -1.7385940574211375e-01  -1.5921964519090048e-01  -1.9488392756362900e-02  2.6499470712887746e-02  -9.6092862837220399e-04  -3.7600637234864241e-03  1.5154511030953980e-03  -1.3318339525737884e-04  -1.3752605161243081e-04  8.9602861780126183e-05  -3.3568250212508517e-05  9.4146615750383688e-06  -2.1037064498483389e-06  3.7348130080252786e-07  -4.8375546208011946e-08  2.6748544044764821e-09  7.4833455778326327e-10  -3.0226160740935814e-10  6.2987268233761286e-11  -8.3215703013329501e-12  3.5468537646899136e-13  1.6261376231327004e-13  -5.6196925502371251e-14  9.5414487533671698e-15  0.0000000000000000e+00  0.0000000000000000e+00  1.0854250892274428e-09  -6.3326611608232901e-09  1.9872859075095751e-08  2.2540394106801255e-08  -8.4617480386679647e-07  7.2644404549552150e-06  -4.3208548805290394e-05  2.0056153320431575e-04  -7.3411555843837771e-04  1.9958866701847997e-03  -3.1166919591776913e-03  -2.6072250797413731e-03  2.9941345110448325e-02  -5.8830316045392024e-02  -8.6239145080235322e-02  4.1012202922118607e-01  7.7811486677242980e-01  3.3580841370662823e-01  -9.6913889089182803e-02  -4.0286191225408538e-02  2.5466573328217019e-02  -3.8023626337764932e-03  -1.7576252314568507e-03  1.3791330867405024e-03  -5.3807775144895165e-04  1.5192606530440846e-04  -3.3568250212508666e-05  5.7929335428688322e-06  -7.0439915670211502e-07  2.6666793627485690e-08  1.4303488300184275e-08  -4.9102550961395622e-09  9.3655561467667177e-10  -1.0812666143034006e-10  7.5370784853035622e-13  3.1518253188125638e-12  -8.8274794092541567e-13  1.4091544894643066e-13  -8.6381484360891752e-15  0.0000000000000000e+00  0.0000000000000000e+00  -1.0302680965675882e-10  -1.4394277768134036e-09  1.6188285740535274e-08  -9.7020098897259039e-08  3.4426889973097639e-07  3.5486142723738993e-08  -1.1575932949571162e-05  1.0778398876010143e-04  -6.6234993950568441e-04  3.1092447807404941e-03  -1.1249245625892343e-02  2.8884275473793995e-02  -3.4686284609555695e-02  -8.6239145080235377e-02  4.6767487647010830e-01  -2.6290967310466451e-01  -2.7227139777841547e+00  -2.5162804942593251e+00  -9.6996974641194708e-02  3.9432741698583579e-01  -9.2209577831990561e-02  -1.9038050588093713e-02  2.1029764888789548e-02  -8.6779360746807640e-03  2.4707190603285353e-03  -5.3807775144895089e-04  8.9602861780126332e-05  -1.0028485023307553e-05  1.4528075970000419e-07  2.6641776377639883e-07  -7.8790230494202756e-08  1.3566270242512904e-08  -1.2921024698048087e-09  -6.5691459863956213e-11  5.7429798394882455e-11  -1.3409350489328404e-11  1.8205933992968981e-12  -6.9937469493545068e-14  -3.8021440038728682e-14  0.0000000000000000e+00  0.0000000000000000e+00  -2.0804260000535037e-10  1.1757080040629352e-09  -2.8765836960240356e-09  -1.3720293815101989e-08  2.1569117898581456e-07  -1.4582090068375097e-06  5.8916692340683080e-06  -4.8072482752347884e-06  -1.5260302250614177e-04  1.5926192136710752e-03  -1.0221065508597561e-02  4.8753406657119955e-02  -1.7385940574211378e-01  4.1012202922118601e-01  -2.6290967310466401e-01  -2.1259912206729656e+00  5.5470273884636319e+00  1.2813313989581916e+01  4.6019926507573450e+00  -2.0538188427653501e+00  -1.0155766399410733e-01  3.1438648009729458e-01  -1.4117587911379112e-01  4.0630207792166056e-02  -8.6779360746807640e-03  1.3791330867405011e-03  -1.3752605161243125e-04  -2.6710572504987540e-06  4.8586602879205370e-06  -1.2424798477695123e-06  1.8876529157869223e-07  -1.3031812483819424e-08  -2.2453936567155892e-09  9.9193369295328708e-10  -1.9418420961889032e-10  2.1011668013594675e-11  4.0004857337050754e-13  -7.5072921592401471e-13  1.7318980771374659e-13  0.0000000000000000e+00  0.0000000000000000e+00  3.4855130630435597e-11  1.9891047674723320e-10  -2.8969168869957106e-09  1.8319740445255006e-08  -6.2310897324764097e-08  -6.8737757196920001e-08  2.6880846874910832e-06  -2.1393795477393957e-05  9.9507817583692961e-05  -1.6807423919214842e-04  -1.8749565982926074e-03  2.3338507194668831e-02  -1.5921964519090051e-01  7.7811486677243002e-01  -2.7227139777841560e+00  5.5470273884636327e+00  2.2922030262520683e+00  -4.3634005407148329e+01  -4.0773539752136294e+01  3.5597958041864386e+00  4.4654468306677044e+00  -2.3275852568045239e+00  6.7984046462204739e-01  -1.4117587911379137e-01  2.1029764888789597e-02  -1.7576252314568592e-03  -1.3318339525737762e-04  8.6842136184660682e-05  -1.9077863448811244e-05  2.4542202549919706e-06  -7.6325781670154565e-08  -5.3352505992838366e-08  1.6213270588675836e-08  -2.6193117115782338e-09  1.9231187557405787e-10  2.9292398843818928e-11  -1.3457127327783587e-11  2.5953804971924340e-12  -2.3185156436157079e-13  0.0000000000000000e+00  0.0000000000000000e+00  3.2020606448659311e-11  -2.3551522815309163e-10  8.5492339335405348e-10  5.5134244359854016e-10  -3.3214765213171191e-08  2.6696634033230916e-07  -1.1865112948919482e-06  1.2617847559441792e-06  2.9347433498246172e-05  -3.0083868036985100e-04  1.6503755663475487e-03  -4.2796355549501695e-03  -1.9488392756362837e-02  3.3580841370662801e-01  -2.5162804942593255e+00  1.2813313989581925e+01  -4.3634005407148322e+01  6.1986446056258536e+01  2.2626421508292637e+02  5.1652511106691762e+01  -3.9279824334562434e+01  1.1729980546718405e+01  -2.3275852568045146e+00  3.1438648009729336e-01  -1.9038050588093547e-02  -3.8023626337764984e-03  1.5154511030953989e-03  -2.7997840528979631e-04  2.7915577771396793e-05  1.0191048932226587e-06  -1.0822509889939954e-06  2.4743304155454353e-07  -3.1308011352089843e-08  6.4606251294852340e-10  7.7331002152722292e-10  -2.1831567566522218e-10  3.2810510317911241e-11  -1.7994368528835527e-12  -5.3180660406408929e-13  0.0000000000000000e+00  0.0000000000000000e+00  -1.2451565257494349e-11  1.0752201430950469e-11  3.4278958802501462e-10  -3.2598905630545534e-09  1.6303693311660826e-08  -2.9910541740567574e-08  -2.9269997723764144e-07  3.5237751496016064e-06  -2.0392382213164463e-05  5.5635118904204454e-05  2.2135954310868063e-04  -3.8851750750660344e-03  2.6499470712887749e-02  -9.6913889089182928e-02  -9.6996974641193556e-02  4.6019926507573432e+00  -4.0773539752136294e+01  2.2626421508292640e+02  -7.3595185966156453e+02  -6.9790914191713387e+02  2.1680417848282787e+02  -3.9279824334562605e+01  4.4654468306677160e+00  -1.0155766399411098e-01  -9.2209577831989811e-02  2.5466573328216852e-02  -3.7600637234864081e-03  2.1938499358880315e-04  5.2545239309883405e-05  -1.9558305346172746e-05  3.4035770618032219e-06  -2.8681974081167269e-07  -2.7845122907571379e-08  1.5603701271490109e-08  -3.143370750389584